LAMMPS (11 Aug 2017)
# 3d Lennard-Jones melt

units		lj
atom_style	atomic
boundary p p p

variable	xx equal ${size}
variable	xx equal 10
variable	yy equal ${size}
variable	yy equal 10
variable	zz equal ${size}
variable	zz equal 10


lattice		fcc ${rho}
lattice		fcc 0.010000
Lattice spacing in x,y,z = 7.36806 7.36806 7.36806
region		box block 0 ${xx} 0 ${yy} 0 ${zz}
region		box block 0 10 0 ${yy} 0 ${zz}
region		box block 0 10 0 10 0 ${zz}
region		box block 0 10 0 10 0 10
create_box	1 box
Created orthogonal box = (0 0 0) to (73.6806 73.6806 73.6806)
  2 by 2 by 2 MPI processor grid
create_atoms	1 box
Created 4000 atoms
mass		1 1.0 #39.948

velocity	all create ${T} 1 loop geom dist uniform#create temp seed
velocity	all create 1.460000 1 loop geom dist uniform
timestep    ${dt}
timestep    0.002000

pair_style	lj/cut 3.0
pair_coeff	1 1 1.0 1.0 3.0

neighbor	0.3 bin
neigh_modify	delay 0 every 20 check no

fix	1 all nve

thermo ${Dump}
thermo 50

thermo_style custom temp press pe ke etotal

#dump dump all custom ${Dump} dump.xyz id type x y z vx vy vz
run		${Run}
run		5000
Neighbor list info ...
  update every 20 steps, delay 0 steps, check no
  max neighbors/atom: 2000, page size: 100000
  master list distance cutoff = 3.3
  ghost atom cutoff = 3.3
  binsize = 1.65, bins = 45 45 45
  1 neighbor lists, perpetual/occasional/extra = 1 0 0
  (1) pair lj/cut, perpetual
      attributes: half, newton on
      pair build: half/bin/atomonly/newton
      stencil: half/bin/3d/newton
      bin: standard
Per MPI rank memory allocation (min/avg/max) = 2.644 | 2.644 | 2.644 Mbytes
Temp Press PotEng KinEng TotEng 
        1.46   0.01459635            0    2.1894525    2.1894525 
        1.46   0.01459635            0    2.1894525    2.1894525 
        1.46   0.01459635            0    2.1894525    2.1894525 
        1.46   0.01459635            0    2.1894525    2.1894525 
   1.4600002  0.014596319 -1.6404642e-06    2.1894528    2.1894511 
   1.4600151  0.014595039 -7.3279737e-05    2.1894751    2.1894019 
   1.4601791  0.014587352 -0.00054248522    2.1897211    2.1891787 
   1.4609889  0.014567976 -0.0020855969    2.1909355    2.1888499 
   1.4633868    0.0145437 -0.0060330067    2.1945315    2.1884985 
   1.4654639  0.014771373 -0.0094530326    2.1976463    2.1881932 
   1.4703488  0.014991894 -0.017053868    2.2049718    2.1879179 
   1.4766189  0.015040423 -0.026690283    2.2143747    2.1876844 
   1.4819346   0.01498179  -0.03486342    2.2223462    2.1874828 
   1.4849658  0.014833931 -0.039576216    2.2268918    2.1873156 
   1.4875606   0.01458902 -0.043625898    2.2307831    2.1871572 
   1.4854903  0.014849491  -0.04062887    2.2276783    2.1870495 
   1.4895208  0.014579745 -0.046738413    2.2337226    2.1869842 
   1.4896443  0.014732591 -0.047035988    2.2339078    2.1868718 
   1.4908681  0.014831921 -0.048969874     2.235743    2.1867732 
    1.493288  0.014751864 -0.052631862     2.239372    2.1867401 
   1.4913617  0.014993647 -0.049771361    2.2364833    2.1867119 
   1.4936274  0.014851212 -0.053187405    2.2398809    2.1866935 
   1.4921588  0.014970251 -0.051011279    2.2376786    2.1866673 
   1.4925749  0.014736624 -0.051706273    2.2383026    2.1865964 
    1.492437  0.014670193 -0.051529351    2.2380958    2.1865665 
   1.4892417  0.014931592 -0.046768721     2.233304    2.1865353 
   1.4925772  0.014572341 -0.051800718    2.2383061    2.1865054 
   1.4908458   0.01482233 -0.049168575    2.2357097    2.1865411 
   1.4923844    0.0147827 -0.051482079    2.2380169    2.1865348 
   1.4925606  0.014809125  -0.05174397    2.2382811    2.1865372 
   1.4929373  0.014759889 -0.052283711    2.2388462    2.1865624 
   1.4943103  0.014646237 -0.054348913    2.2409051    2.1865562 
   1.4939393  0.014686135 -0.053790799    2.2403487    2.1865579 
   1.4942215   0.01474395 -0.054257508    2.2407719    2.1865144 
   1.4952969  0.014742073 -0.055895873    2.2423846    2.1864887 
    1.494701  0.014792315 -0.055014343    2.2414909    2.1864766 
    1.496623   0.01462286  -0.05789859    2.2443733    2.1864747 
   1.4962023  0.014765887 -0.057245626    2.2437423    2.1864967 
   1.4975136  0.014745011 -0.059244942    2.2457089    2.1864639 
   1.4988077  0.014746411   -0.0611784    2.2476495    2.1864711 
   1.4992234  0.014748705 -0.061781237    2.2482729    2.1864917 
   1.4980257  0.014873354 -0.059967056    2.2464767    2.1865097 
   1.4989494  0.014816177 -0.061355659     2.247862    2.1865064 
   1.4983214  0.014845484 -0.060384238    2.2469202    2.1865359 
    1.498196  0.014798167 -0.060165792    2.2467322    2.1865664 
   1.4984481  0.014710658 -0.060544668    2.2471103    2.1865656 
   1.4969579  0.014849359 -0.058362012    2.2448755    2.1865135 
   1.4973092  0.014698587  -0.05889499    2.2454024    2.1865074 
   1.4948204   0.01471572 -0.055180826      2.24167    2.1864892 
   1.4963896  0.014444703  -0.05751156    2.2440232    2.1865117 
   1.4970586   0.01450171  -0.05847619    2.2450265    2.1865504 
   1.4948874  0.014919034 -0.055241495    2.2417705     2.186529 
   1.4979041  0.014779457 -0.059804423    2.2462944      2.18649 
   1.4975948  0.014851266 -0.059374201    2.2458307    2.1864565 
   1.4989544  0.014656312 -0.061413731    2.2478695    2.1864558 
    1.495384  0.014795587 -0.056024201    2.2425152     2.186491 
   1.4956465  0.014619146 -0.056420363    2.2429089    2.1864885 
   1.4964726  0.014604232 -0.057626689    2.2441478    2.1865211 
   1.4960827  0.014762002 -0.057056437     2.243563    2.1865065 
   1.4984453  0.014623236 -0.060626694     2.247106    2.1864793 
   1.4963855  0.014852531 -0.057529306    2.2440171    2.1864878 
   1.4975142   0.01472076 -0.059238045    2.2457098    2.1864717 
   1.4966262  0.014764442 -0.057913465    2.2443781    2.1864646 
   1.4975393  0.014860318 -0.059293807    2.2457474    2.1864536 
    1.498274  0.014915446 -0.060428924    2.2468491    2.1864202 
   1.4999199  0.014696164 -0.062918278    2.2493173    2.1863991 
   1.5003129  0.014592816 -0.063516369    2.2499067    2.1863904 
   1.5005533   0.01470313 -0.063846252    2.2502673     2.186421 
   1.4999955  0.014974935 -0.063005698    2.2494308    2.1864251 
    1.502524  0.014792716 -0.066860077    2.2532225    2.1863625 
   1.4985757  0.015003819 -0.060936415    2.2473016    2.1863652 
   1.5007771  0.014564382 -0.064263796    2.2506029    2.1863391 
   1.4994879  0.014557639 -0.062348955    2.2486696    2.1863206 
   1.5000054  0.014556286 -0.063128723    2.2494456    2.1863169 
   1.4985155  0.014788846 -0.060894959    2.2472114    2.1863164 
   1.4997306  0.014791282 -0.062707104    2.2490335    2.1863264 
   1.4990352  0.014905784 -0.061669481    2.2479906    2.1863211 
   1.5004664  0.014845774 -0.063830352    2.2501369    2.1863066 
   1.5012696  0.014721847 -0.065043588    2.2513414    2.1862978 
   1.5018422  0.014537593 -0.065886929    2.2522001    2.1863132 
   1.5013828  0.014601942  -0.06523526    2.2515112    2.1862759 
   1.5009296  0.014802697 -0.064555478    2.2508315     2.186276 
     1.50322  0.014706183 -0.068020602    2.2542663    2.1862457 
   1.5039778  0.014628621 -0.069147865    2.2554027    2.1862548 
   1.5033604  0.014720253 -0.068225724    2.2544768    2.1862511 
   1.5051121  0.014650023 -0.070859279    2.2571037    2.1862444 
   1.5046006  0.014790524 -0.070129853    2.2563367    2.1862069 
   1.5063885  0.014768458 -0.072778922    2.2590179     2.186239 
   1.5039267   0.01496322 -0.069100243    2.2553261    2.1862258 
   1.5067557  0.014561531 -0.073358811    2.2595686    2.1862098 
   1.5036346  0.014806823 -0.068675083    2.2548881     2.186213 
   1.5050478  0.014632543 -0.070773696    2.2570073    2.1862336 
   1.5037386  0.014716632  -0.06877647    2.2550441    2.1862676 
   1.5042317  0.014689248 -0.069471294    2.2557834    2.1863121 
   1.5051442  0.014602774 -0.070877335    2.2571518    2.1862745 
   1.5043005  0.014688784 -0.069609199    2.2558867    2.1862775 
   1.5026506   0.01476172 -0.067121058    2.2534125    2.1862914 
    1.502946   0.01457683 -0.067527806    2.2538554    2.1863276 
   1.5008789  0.014721875 -0.064433218    2.2507555    2.1863223 
   1.4998629   0.01474114 -0.062952289    2.2492318    2.1862796 
   1.5018145  0.014543021 -0.065914937    2.2521586    2.1862437 
Loop time of 0.723858 on 8 procs for 5000 steps with 4000 atoms

Performance: 1193604.321 tau/day, 6907.432 timesteps/s
47.8% CPU use with 8 MPI tasks x no OpenMP threads

MPI task timing breakdown:
Section |  min time  |  avg time  |  max time  |%varavg| %total
---------------------------------------------------------------
Pair    | 0.049355   | 0.054551   | 0.057926   |   1.1 |  7.54
Neigh   | 0.036352   | 0.03756    | 0.040519   |   0.6 |  5.19
Comm    | 0.57172    | 0.57819    | 0.58511    |   0.6 | 79.88
Output  | 0.0058076  | 0.0083559  | 0.011063   |   1.8 |  1.15
Modify  | 0.038382   | 0.040067   | 0.043004   |   0.7 |  5.54
Other   |            | 0.005134   |            |       |  0.71

Nlocal:    500 ave 528 max 452 min
Histogram: 1 0 0 1 1 0 1 1 1 2
Nghost:    308 ave 322 max 296 min
Histogram: 1 2 0 1 0 0 3 0 0 1
Neighs:    387.625 ave 453 max 320 min
Histogram: 1 1 1 1 0 0 1 1 1 1

Total # of neighbors = 3101
Ave neighs/atom = 0.77525
Neighbor list builds = 250
Dangerous builds not checked
Total wall time: 0:00:00
