LAMMPS (11 Aug 2017)
# 3d Lennard-Jones melt

units		lj
atom_style	atomic
boundary p p p

variable	xx equal ${size}
variable	xx equal 10
variable	yy equal ${size}
variable	yy equal 10
variable	zz equal ${size}
variable	zz equal 10


lattice		fcc ${rho}
lattice		fcc 0.188200
Lattice spacing in x,y,z = 2.77 2.77 2.77
region		box block 0 ${xx} 0 ${yy} 0 ${zz}
region		box block 0 10 0 ${yy} 0 ${zz}
region		box block 0 10 0 10 0 ${zz}
region		box block 0 10 0 10 0 10
create_box	1 box
Created orthogonal box = (0 0 0) to (27.7 27.7 27.7)
  2 by 2 by 2 MPI processor grid
create_atoms	1 box
Created 4000 atoms
mass		1 1.0 #39.948

velocity	all create ${T} 1 loop geom dist uniform#create temp seed
velocity	all create 1.880000 1 loop geom dist uniform
timestep    ${dt}
timestep    0.002000

pair_style	lj/cut 3.0
pair_coeff	1 1 1.0 1.0 3.0

neighbor	0.3 bin
neigh_modify	delay 0 every 20 check no

fix	1 all nve

thermo ${Dump}
thermo 50

thermo_style custom temp press pe ke etotal

#dump dump all custom ${Dump} dump.xyz id type x y z vx vy vz
run		${Run}
run		5000
Neighbor list info ...
  update every 20 steps, delay 0 steps, check no
  max neighbors/atom: 2000, page size: 100000
  master list distance cutoff = 3.3
  ghost atom cutoff = 3.3
  binsize = 1.65, bins = 17 17 17
  1 neighbor lists, perpetual/occasional/extra = 1 0 0
  (1) pair lj/cut, perpetual
      attributes: half, newton on
      pair build: half/bin/atomonly/newton
      stencil: half/bin/3d/newton
      bin: standard
Per MPI rank memory allocation (min/avg/max) = 2.61 | 2.61 | 2.61 Mbytes
Temp Press PotEng KinEng TotEng 
        1.88   0.18945777  -0.44400937     2.819295    2.3752856 
    1.923849   0.17629609  -0.50847781     2.885052    2.3765742 
     2.04251   0.23283654  -0.69136711     3.062999    2.3716319 
   2.1035059   0.47166676  -0.78502637      3.15447    2.3694437 
   2.2294646   0.43424801  -0.97436944    3.3433608    2.3689914 
   2.2611511   0.44226504   -1.0221411    3.3908787    2.3687377 
   2.2731619   0.43782912   -1.0404031    3.4088904    2.3684873 
   2.2884004   0.40320847   -1.0635911    3.4317425    2.3681514 
   2.2729196   0.43225632   -1.0407331     3.408527    2.3677939 
   2.2860226   0.41424825   -1.0606469    3.4281767    2.3675297 
   2.2907132   0.41398315   -1.0679794    3.4352108    2.3672314 
   2.2979873    0.4061873   -1.0791376    3.4461192    2.3669816 
   2.2994719   0.41050279    -1.081416    3.4483455    2.3669295 
   2.2988262   0.40098477   -1.0802652    3.4473772     2.367112 
   2.2933793   0.42766556    -1.072113    3.4392089    2.3670959 
   2.3026512   0.42950645   -1.0862094    3.4531133    2.3669039 
   2.3168641   0.41351063   -1.1074747    3.4744273    2.3669526 
   2.3159489   0.42078264   -1.1058967    3.4730549    2.3671582 
    2.322874   0.40761113   -1.1164957    3.4834399    2.3669442 
   2.3164206   0.41588843   -1.1068067    3.4737622    2.3669555 
   2.3227628   0.41165436   -1.1163944    3.4832731    2.3668787 
   2.3121225   0.41100547   -1.1003945    3.4673167    2.3669222 
   2.3011218   0.41680367    -1.083792    3.4508197    2.3670278 
   2.3011391   0.42779341   -1.0838211    3.4508458    2.3670246 
   2.3183209    0.4161854   -1.1094765    3.4766119    2.3671354 
   2.3073814   0.43674832    -1.093085    3.4602068    2.3671218 
   2.3156429   0.41970903   -1.1054631    3.4725959    2.3671328 
   2.3067691   0.43107604   -1.0920668    3.4592887    2.3672219 
    2.313992   0.41769655   -1.1032081    3.4701202    2.3669121 
   2.3099009   0.41001313   -1.0971986    3.4639851    2.3667865 
   2.3126875   0.40363848   -1.1013847     3.468164    2.3667793 
   2.3172973   0.41144377   -1.1083013     3.475077    2.3667758 
   2.3072323   0.42703018   -1.0932137    3.4599832    2.3667694 
   2.3111081   0.41357616   -1.0989506    3.4657954    2.3668448 
   2.3150632   0.41332311   -1.1050714    3.4717267    2.3666553 
   2.3296019   0.40433701   -1.1269392    3.4935293    2.3665901 
   2.3341925   0.41443476   -1.1338746    3.5004134    2.3665388 
   2.3396543    0.4154035   -1.1420923    3.5086041    2.3665118 
   2.3284957   0.42492312   -1.1254896    3.4918703    2.3663807 
   2.3294631   0.41859327   -1.1268977     3.493321    2.3664233 
    2.332801    0.4129458   -1.1319022    3.4983267    2.3664245 
   2.3180938   0.43212875    -1.109944    3.4762714    2.3663274 
   2.3330165   0.40591699   -1.1321774    3.4986499    2.3664724 
   2.3119559    0.4346648   -1.1006777    3.4670669    2.3663893 
   2.3250293   0.41036901   -1.1201376     3.486672    2.3665344 
   2.3238179   0.42784527   -1.1184872    3.4848555    2.3663683 
   2.3210785    0.4372703   -1.1142671    3.4807473    2.3664803 
   2.3396095   0.41015457   -1.1422403    3.5085369    2.3662966 
   2.3191151   0.44537724   -1.1114751     3.477803    2.3663279 
   2.3361224   0.40963268   -1.1370477    3.5033076    2.3662599 
   2.3286107   0.41645726   -1.1257583    3.4920428    2.3662845 
   2.3228232   0.42571064   -1.1168815    3.4833637    2.3664822 
   2.3154452   0.43107741   -1.1058442    3.4722995    2.3664554 
   2.3280069   0.40317244   -1.1246311    3.4911373    2.3665062 
   2.3245387   0.41407619   -1.1192061    3.4859363    2.3667302 
   2.3177166   0.42787831   -1.1090625    3.4757058    2.3666433 
   2.3233753   0.41771841    -1.117334    3.4841917    2.3668577 
   2.3235311   0.41714342   -1.1176439    3.4844254    2.3667815 
    2.318274   0.43410799   -1.1099132    3.4765417    2.3666285 
    2.337709   0.40802818   -1.1390805    3.5056869    2.3666065 
   2.3352064   0.40923012   -1.1353321    3.5019339    2.3666018 
   2.3255421   0.42671347   -1.1208349    3.4874411    2.3666062 
   2.3286188   0.43229077   -1.1255191     3.492055    2.3665359 
   2.3273684   0.42438993   -1.1236051    3.4901799    2.3665747 
   2.3331819   0.41087773   -1.1324816    3.4988979    2.3664163 
   2.3250864   0.42636665    -1.120242    3.4867577    2.3665157 
   2.3267916   0.42186007   -1.1226632    3.4893148    2.3666516 
   2.3273866   0.41873262    -1.123584    3.4902071    2.3666231 
   2.3326063   0.41835024   -1.1313686    3.4980347    2.3666661 
   2.3293061   0.42858949   -1.1267161    3.4930856    2.3663695 
   2.3219426   0.44564744   -1.1157004    3.4820431    2.3663427 
   2.3228628   0.44258556   -1.1172026    3.4834231    2.3662204 
   2.3267272   0.43592395   -1.1228767    3.4892183    2.3663415 
   2.3273093   0.42397214   -1.1236404    3.4900913    2.3664509 
   2.3271807   0.42000781   -1.1233706    3.4898984    2.3665278 
   2.3207242   0.42278398   -1.1138591    3.4802161    2.3663569 
   2.3248233   0.41064663     -1.12003    3.4863632    2.3663332 
   2.3350326   0.39520457   -1.1352105    3.5016733    2.3664628 
   2.3090048     0.443676   -1.0962502    3.4626414    2.3663912 
   2.3337691   0.40224298   -1.1332284    3.4997785    2.3665501 
   2.3159758   0.43594363   -1.1065783    3.4730952    2.3665168 
   2.3333749   0.41319214   -1.1328021    3.4991874    2.3663852 
   2.3297084   0.41782807   -1.1271346    3.4936889    2.3665544 
   2.3240925    0.4356067   -1.1185812    3.4852672     2.366686 
   2.3301728   0.42329894    -1.127652    3.4943854    2.3667335 
   2.3269473   0.41732925   -1.1228779    3.4895484    2.3666705 
   2.3292135   0.40551818   -1.1264373    3.4929469    2.3665095 
   2.3208707    0.4083238   -1.1139181    3.4804357    2.3665177 
   2.3169573    0.4135191   -1.1081132     3.474567    2.3664538 
   2.3193318   0.41167169   -1.1115552    3.4781279    2.3665727 
   2.3291034   0.40325879   -1.1264576    3.4927817    2.3663241 
   2.3096626   0.44800195   -1.0973604    3.4636278    2.3662674 
   2.3157287   0.45144207   -1.1063736    3.4727246    2.3663511 
   2.3280208    0.4257964   -1.1248625    3.4911582    2.3662957 
   2.3149736   0.44002695   -1.1054397    3.4715923    2.3661526 
   2.3329497   0.41156407   -1.1323979    3.4985498    2.3661519 
   2.3303024    0.4160276   -1.1282821    3.4945797    2.3662977 
   2.3300071   0.41712203   -1.1278264     3.494137    2.3663106 
   2.3252376   0.42264949   -1.1206705    3.4869845    2.3663139 
    2.332771   0.40467479   -1.1319403    3.4982817    2.3663413 
   2.3302197   0.40930146   -1.1280533    3.4944558    2.3664025 
Loop time of 2.31396 on 8 procs for 5000 steps with 4000 atoms

Performance: 373386.285 tau/day, 2160.800 timesteps/s
65.1% CPU use with 8 MPI tasks x no OpenMP threads

MPI task timing breakdown:
Section |  min time  |  avg time  |  max time  |%varavg| %total
---------------------------------------------------------------
Pair    | 0.75709    | 0.81328    | 0.87475    |   4.4 | 35.15
Neigh   | 0.1443     | 0.15207    | 0.17241    |   2.2 |  6.57
Comm    | 1.2245     | 1.293      | 1.3605     |   4.2 | 55.88
Output  | 0.0042286  | 0.0055721  | 0.010322   |   3.0 |  0.24
Modify  | 0.038323   | 0.040805   | 0.043402   |   0.8 |  1.76
Other   |            | 0.009214   |            |       |  0.40

Nlocal:    500 ave 531 max 474 min
Histogram: 1 0 2 1 1 1 0 0 1 1
Nghost:    1102.62 ave 1144 max 1059 min
Histogram: 1 0 1 1 2 0 0 1 1 1
Neighs:    7072.5 ave 7775 max 6384 min
Histogram: 1 1 2 0 1 0 0 1 0 2

Total # of neighbors = 56580
Ave neighs/atom = 14.145
Neighbor list builds = 250
Dangerous builds not checked
Total wall time: 0:00:02
