LAMMPS (11 Aug 2017)
# 3d Lennard-Jones melt

units		lj
atom_style	atomic
boundary p p p

variable	xx equal ${size}
variable	xx equal 10
variable	yy equal ${size}
variable	yy equal 10
variable	zz equal ${size}
variable	zz equal 10


lattice		fcc ${rho}
lattice		fcc 0.128800
Lattice spacing in x,y,z = 3.14327 3.14327 3.14327
region		box block 0 ${xx} 0 ${yy} 0 ${zz}
region		box block 0 10 0 ${yy} 0 ${zz}
region		box block 0 10 0 10 0 ${zz}
region		box block 0 10 0 10 0 10
create_box	1 box
Created orthogonal box = (0 0 0) to (31.4327 31.4327 31.4327)
  2 by 2 by 2 MPI processor grid
create_atoms	1 box
Created 4000 atoms
mass		1 1.0 #39.948

velocity	all create ${T} 1 loop geom dist uniform#create temp seed
velocity	all create 3.020000 1 loop geom dist uniform
timestep    ${dt}
timestep    0.002000

pair_style	lj/cut 3.0
pair_coeff	1 1 1.0 1.0 3.0

neighbor	0.3 bin
neigh_modify	delay 0 every 20 check no

fix	1 all nve

thermo ${Dump}
thermo 50

thermo_style custom temp press pe ke etotal

#dump dump all custom ${Dump} dump.xyz id type x y z vx vy vz
run		${Run}
run		5000
Neighbor list info ...
  update every 20 steps, delay 0 steps, check no
  max neighbors/atom: 2000, page size: 100000
  master list distance cutoff = 3.3
  ghost atom cutoff = 3.3
  binsize = 1.65, bins = 20 20 20
  1 neighbor lists, perpetual/occasional/extra = 1 0 0
  (1) pair lj/cut, perpetual
      attributes: half, newton on
      pair build: half/bin/atomonly/newton
      stencil: half/bin/3d/newton
      bin: standard
Per MPI rank memory allocation (min/avg/max) = 2.615 | 2.615 | 2.615 Mbytes
Temp Press PotEng KinEng TotEng 
        3.02   0.33844821  -0.19742202    4.5288675    4.3314455 
   3.0487946    0.3305202  -0.24504992    4.5720487    4.3269988 
   3.1268432   0.37070233  -0.36258085    4.6890922    4.3265114 
   3.1744937   0.50362839  -0.43347993    4.7605501    4.3270702 
   3.2874351   0.45687231  -0.60290583    4.9299198     4.327014 
   3.3083166   0.46077945  -0.63476502    4.9612343    4.3264693 
   3.3255221   0.45644385  -0.66097431    4.9870361    4.3260618 
   3.3253097     0.457393  -0.66087288    4.9867176    4.3258447 
   3.3250518   0.45194401  -0.66062462    4.9863308    4.3257061 
   3.3233707   0.45830316  -0.65824032    4.9838098    4.3255695 
   3.3205572   0.46390782  -0.65396484    4.9795905    4.3256257 
   3.3332485   0.44357676  -0.67326504    4.9986228    4.3253577 
   3.3212757   0.45992621    -0.655213    4.9806681    4.3254551 
   3.3283038   0.46015781   -0.6658861    4.9912076    4.3253215 
   3.3435687   0.44767042  -0.68897197    5.0140992    4.3251272 
   3.3406274   0.45568393  -0.68444304    5.0096883    4.3252453 
   3.3430421   0.45456994  -0.68816798    5.0133096    4.3251416 
   3.3379285   0.45128298  -0.68045507     5.005641    4.3251859 
   3.3338064   0.44551604  -0.67444458    4.9994594    4.3250148 
   3.3325858   0.45338926  -0.67265565     4.997629    4.3249733 
   3.3292142   0.45973255  -0.66748753    4.9925729    4.3250854 
   3.3325249   0.45005566  -0.67249892    4.9975377    4.3250388 
   3.3509579   0.43557691  -0.70026326    5.0251802    4.3249169 
   3.3433531   0.46185249  -0.68892509    5.0137759    4.3248508 
   3.3512558   0.45518928  -0.70079929    5.0256269    4.3248277 
   3.3566188   0.44830894  -0.70869983    5.0336695    4.3249697 
   3.3443786    0.4533091  -0.69054608    5.0153138    4.3247677 
    3.350288   0.44253181   -0.6995182    5.0241757    4.3246575 
     3.34762   0.44557632  -0.69529996    5.0201746    4.3248747 
    3.328481     0.469857  -0.66639798    4.9914734    4.3250754 
   3.3465549   0.45056842  -0.69346627    5.0185774    4.3251112 
   3.3446129   0.44896342  -0.69048503    5.0156651    4.3251801 
   3.3476361    0.4395858  -0.69503959    5.0201988    4.3251592 
   3.3608883   0.43739734  -0.71501825    5.0400721    4.3250538 
   3.3421057   0.46301322  -0.68681953    5.0119053    4.3250857 
   3.3462956   0.45499842  -0.69325719    5.0181886    4.3249314 
   3.3511752   0.44768178  -0.70072495    5.0255061    4.3247811 
   3.3529271   0.44564016  -0.70334512    5.0281333    4.3247882 
   3.3536541   0.44243864  -0.70451157    5.0292235    4.3247119 
   3.3474968   0.45005574  -0.69530524    5.0199899    4.3246846 
   3.3541711   0.44242912  -0.70512021    5.0299988    4.3248786 
   3.3423561   0.45083371  -0.68737037    5.0122807    4.3249104 
   3.3465727   0.44548622  -0.69360675    5.0186042    4.3249974 
   3.3290454   0.46660839  -0.66732989    4.9923196    4.3249898 
   3.3569517   0.43733094  -0.70926916    5.0341687    4.3248995 
   3.3416857   0.45595957  -0.68637485    5.0112754    4.3249005 
   3.3390533   0.46071274  -0.68245907    5.0073278    4.3248687 
   3.3646081    0.4312763  -0.72087484    5.0456505    4.3247756 
   3.3401647   0.45858432  -0.68429273    5.0089945    4.3247018 
    3.353092   0.44655535  -0.70379846    5.0283805    4.3245821 
   3.3526101   0.44623945  -0.70301417    5.0276579    4.3246437 
   3.3517987    0.4480743  -0.70181084    5.0264411    4.3246302 
   3.3578668   0.44646325  -0.71083176    5.0355409    4.3247092 
   3.3555462   0.45018298  -0.70715166     5.032061    4.3249094 
   3.3529844   0.44594286  -0.70326821    5.0282193    4.3249511 
   3.3426544    0.4574433  -0.68784842     5.012728    4.3248796 
   3.3537874   0.44821475  -0.70450982    5.0294235    4.3249136 
   3.3461553    0.4554057  -0.69329852    5.0179782    4.3246797 
   3.3521826   0.45294068  -0.70223925    5.0270168    4.3247775 
    3.352634   0.44950556  -0.70297856    5.0276938    4.3247152 
   3.3486776   0.45448899   -0.6971866    5.0217607    4.3245741 
   3.3644372    0.4446155   -0.7206892    5.0453942     4.324705 
   3.3486852   0.46085178   -0.6973101     5.021772    4.3244619 
   3.3477678   0.46140542  -0.69585392    5.0203963    4.3245424 
   3.3639149   0.44364289  -0.72030415    5.0446108    4.3243067 
   3.3626051   0.44360773  -0.71810821    5.0426467    4.3245385 
   3.3531554   0.45530769   -0.7038569    5.0284756    4.3246187 
   3.3508664    0.4609059  -0.70052947     5.025043    4.3245135 
   3.3500479   0.46070193  -0.69933991    5.0238156    4.3244757 
   3.3640069   0.43973833  -0.72027998    5.0447489    4.3244689 
   3.3672784   0.43862229  -0.72531991    5.0496549     4.324335 
   3.3521361   0.45665257  -0.70263293    5.0269471    4.3243142 
   3.3559715   0.45428144  -0.70833878    5.0326988      4.32436 
   3.3528554   0.45842496  -0.70350493    5.0280258    4.3245209 
   3.3632653   0.45061089  -0.71899829    5.0436367    4.3246384 
   3.3636234   0.44964616  -0.71954321    5.0441737    4.3246305 
    3.359527   0.44430832  -0.71344227    5.0380306    4.3245884 
   3.3418476   0.45232799  -0.68688302    5.0115182    4.3246352 
   3.3340761   0.46561094  -0.67512544    4.9998639    4.3247385 
   3.3610745   0.44161778  -0.71577341    5.0403513    4.3245779 
   3.3332472   0.47018686  -0.67404852    4.9986209    4.3245723 
   3.3509733   0.44523669  -0.70058074    5.0252034    4.3246226 
   3.3516884   0.44688512  -0.70164721    5.0262756    4.3246284 
    3.357147   0.44250044  -0.70993622    5.0344616    4.3245254 
   3.3493202   0.44946177  -0.69804674    5.0227243    4.3246775 
    3.344661   0.45875401  -0.69095956    5.0157373    4.3247777 
   3.3604654     0.439055  -0.71465598    5.0394379    4.3247819 
   3.3408843   0.45945832  -0.68519684    5.0100737    4.3248768 
   3.3456477   0.45194763   -0.6923579    5.0172169     4.324859 
   3.3446488   0.44368827  -0.69097896     5.015719      4.32474 
    3.349036   0.43950056  -0.69743312    5.0222981     4.324865 
   3.3395844   0.45544092  -0.68338473    5.0081243    4.3247395 
   3.3509572   0.44600412  -0.70024607    5.0251792    4.3249331 
   3.3401265     0.450697  -0.68377493    5.0089371    4.3251622 
   3.3413502   0.45108222  -0.68576937    5.0107724     4.325003 
   3.3469054   0.44963756  -0.69400808     5.019103    4.3250949 
   3.3474264   0.44721932  -0.69484398    5.0198843    4.3250403 
    3.339414   0.46058428  -0.68287896    5.0078688    4.3249898 
   3.3534382   0.44854252   -0.7040671    5.0288997    4.3248327 
   3.3527936   0.44289647  -0.70320126    5.0279331    4.3247318 
   3.3554242   0.43338524  -0.70702119     5.031878    4.3248568 
Loop time of 1.81731 on 8 procs for 5000 steps with 4000 atoms

Performance: 475426.968 tau/day, 2751.313 timesteps/s
61.6% CPU use with 8 MPI tasks x no OpenMP threads

MPI task timing breakdown:
Section |  min time  |  avg time  |  max time  |%varavg| %total
---------------------------------------------------------------
Pair    | 0.53511    | 0.56517    | 0.6046     |   2.6 | 31.10
Neigh   | 0.11653    | 0.12256    | 0.12779    |   1.0 |  6.74
Comm    | 1.0195     | 1.0732     | 1.1045     |   2.5 | 59.05
Output  | 0.00436    | 0.0060422  | 0.01134    |   2.7 |  0.33
Modify  | 0.038517   | 0.042029   | 0.054183   |   2.3 |  2.31
Other   |            | 0.008311   |            |       |  0.46

Nlocal:    500 ave 539 max 468 min
Histogram: 1 1 1 1 1 0 1 1 0 1
Nghost:    931.625 ave 950 max 904 min
Histogram: 2 0 1 0 0 0 0 0 3 2
Neighs:    4785.75 ave 5502 max 4265 min
Histogram: 2 0 1 1 1 0 2 0 0 1

Total # of neighbors = 38286
Ave neighs/atom = 9.5715
Neighbor list builds = 250
Dangerous builds not checked
Total wall time: 0:00:01
