LAMMPS (11 Aug 2017)
# 3d Lennard-Jones melt

units		lj
atom_style	atomic
boundary p p p

variable	xx equal ${size}
variable	xx equal 10
variable	yy equal ${size}
variable	yy equal 10
variable	zz equal ${size}
variable	zz equal 10


lattice		fcc ${rho}
lattice		fcc 0.920800
Lattice spacing in x,y,z = 1.63167 1.63167 1.63167
region		box block 0 ${xx} 0 ${yy} 0 ${zz}
region		box block 0 10 0 ${yy} 0 ${zz}
region		box block 0 10 0 10 0 ${zz}
region		box block 0 10 0 10 0 10
create_box	1 box
Created orthogonal box = (0 0 0) to (16.3167 16.3167 16.3167)
  2 by 2 by 2 MPI processor grid
create_atoms	1 box
Created 4000 atoms
mass		1 1.0 #39.948

velocity	all create ${T} 1 loop geom dist uniform#create temp seed
velocity	all create 3.020000 1 loop geom dist uniform
timestep    ${dt}
timestep    0.002000

pair_style	lj/cut 3.0
pair_coeff	1 1 1.0 1.0 3.0

neighbor	0.3 bin
neigh_modify	delay 0 every 20 check no

fix	1 all nve

thermo ${Dump}
thermo 50

thermo_style custom temp press pe ke etotal

#dump dump all custom ${Dump} dump.xyz id type x y z vx vy vz
run		${Run}
run		5000
Neighbor list info ...
  update every 20 steps, delay 0 steps, check no
  max neighbors/atom: 2000, page size: 100000
  master list distance cutoff = 3.3
  ghost atom cutoff = 3.3
  binsize = 1.65, bins = 10 10 10
  1 neighbor lists, perpetual/occasional/extra = 1 0 0
  (1) pair lj/cut, perpetual
      attributes: half, newton on
      pair build: half/bin/atomonly/newton
      stencil: half/bin/3d/newton
      bin: standard
Per MPI rank memory allocation (min/avg/max) = 2.695 | 2.695 | 2.695 Mbytes
Temp Press PotEng KinEng TotEng 
        3.02   -3.1059247   -7.5566848    4.5288675   -3.0278173 
   1.5552812    7.2291676    -5.404412    2.3323386   -3.0720734 
   1.5531382    7.1659895   -5.4029106    2.3291249   -3.0737857 
   1.5310948    7.2842868   -5.3709108    2.2960681   -3.0748427 
   1.5386963    7.2176515   -5.3821604    2.3074675   -3.0746929 
   1.5282851    7.2860529   -5.3669052    2.2918545   -3.0750507 
   1.5339473    7.2681776   -5.3754626    2.3003457   -3.0751169 
   1.5204637    7.3572721   -5.3555269    2.2801254   -3.0754015 
   1.5109707    7.4564105   -5.3412932    2.2658895   -3.0754037 
   1.5204542    7.4012828   -5.3557481    2.2801111   -3.0756371 
   1.4984289    7.5214758    -5.322916    2.2470815   -3.0758345 
     1.50193    7.4921065   -5.3284718    2.2523317   -3.0761401 
   1.4979418    7.5268714   -5.3222742     2.246351   -3.0759232 
   1.4931949    7.5946348   -5.3153327    2.2392324   -3.0761003 
     1.48944    7.5883267   -5.3095491    2.2336015   -3.0759475 
   1.5185756    7.4161155   -5.3535192     2.277294   -3.0762252 
   1.4819414    7.6887597   -5.2987463    2.2223564     -3.07639 
   1.4907452    7.6551168   -5.3121663    2.2355587   -3.0766076 
   1.4885794    7.6218093    -5.308917    2.2323109   -3.0766061 
   1.4810926    7.6961263   -5.2976021    2.2210834   -3.0765187 
   1.4890495    7.6426785   -5.3094153    2.2330159   -3.0763994 
   1.4917124    7.6121162   -5.3133029    2.2370092   -3.0762937 
   1.4756549    7.6939128   -5.2891565     2.212929   -3.0762275 
   1.4820722    7.6268243   -5.2987378    2.2225525   -3.0761853 
   1.4885135    7.6195074   -5.3081389    2.2322121   -3.0759269 
   1.4863029    7.6183972    -5.305025     2.228897    -3.076128 
   1.4890683     7.643898     -5.30898     2.233044    -3.075936 
    1.493312    7.5696729   -5.3156534    2.2394081   -3.0762454 
   1.4716383    7.7418036   -5.2833234    2.2069056   -3.0764178 
    1.480107    7.6880043   -5.2959555    2.2196054   -3.0763501 
   1.4570449     7.802891   -5.2613129    2.1850209    -3.076292 
   1.4790694    7.6845341   -5.2940702    2.2180495   -3.0760208 
    1.476054    7.6916789   -5.2897224    2.2135275   -3.0761949 
   1.4820574    7.6608009    -5.298596    2.2225303   -3.0760656 
     1.47929    7.7024295   -5.2944138    2.2183802   -3.0760336 
   1.4815747    7.6703014   -5.2980124    2.2218064   -3.0762059 
   1.4780397    7.7192092   -5.2927383    2.2165053    -3.076233 
   1.4982031    7.5699996   -5.3227057    2.2467428   -3.0759629 
   1.4874166    7.6583775     -5.30694    2.2305671    -3.076373 
   1.4804972    7.6685946   -5.2965028    2.2201905   -3.0763122 
   1.4733054    7.7115856   -5.2855376    2.2094057   -3.0761319 
   1.4830367     7.628205   -5.2998701    2.2239989   -3.0758712 
   1.4876244    7.6148971   -5.3068724    2.2308788   -3.0759937 
   1.4884951     7.639935   -5.3080218    2.2321845   -3.0758373 
   1.4638799     7.760981   -5.2713173    2.1952708   -3.0760465 
   1.4859376    7.6390325   -5.3046724    2.2283492   -3.0763233 
   1.4874362    7.6234516   -5.3068531    2.2305965   -3.0762566 
   1.4849474    7.6242312   -5.3029867    2.2268643   -3.0761223 
   1.4915688    7.5940122   -5.3127397    2.2367939   -3.0759458 
   1.4549277    7.8434739   -5.2578054     2.181846   -3.0759594 
   1.4699461    7.7389432   -5.2806853     2.204368   -3.0763173 
   1.5033321    7.5494908    -5.330663    2.2544344   -3.0762285 
   1.4947946    7.5736651   -5.3181418    2.2416313   -3.0765105 
   1.4685835    7.7049729   -5.2782778    2.2023245   -3.0759532 
   1.5116499    7.4723179   -5.3428318     2.266908   -3.0759238 
   1.4766852    7.6804306   -5.2906915    2.2144741   -3.0762174 
   1.4948018    7.5465102   -5.3176576    2.2416422   -3.0760154 
   1.4930695    7.5526553   -5.3152389    2.2390443   -3.0761946 
   1.4909648    7.6040783   -5.3120728    2.2358881   -3.0761847 
   1.4954938    7.5985491   -5.3191313    2.2426799   -3.0764514 
   1.4780422    7.6751995   -5.2929021    2.2165091    -3.076393 
   1.4848233    7.6272682   -5.3025445    2.2266781   -3.0758664 
   1.4603902    7.7909065   -5.2660355    2.1900376   -3.0759979 
   1.4793367    7.6633867   -5.2946594    2.2184503   -3.0762091 
   1.4690997    7.7209324   -5.2793995    2.2030987   -3.0763008 
   1.4970786     7.572349   -5.3212668    2.2450566   -3.0762103 
   1.4780252      7.68319   -5.2928461    2.2164836   -3.0763626 
   1.4936515     7.600142   -5.3160183    2.2399171   -3.0761012 
   1.4807054    7.6448527   -5.2965344    2.2205029   -3.0760315 
   1.4831054    7.6565738   -5.3001415    2.2241019   -3.0760396 
   1.4733667    7.7475432   -5.2858337    2.2094975   -3.0763362 
   1.4767256    7.7155028   -5.2909236    2.2145346    -3.076389 
   1.4994345     7.552143   -5.3251265    2.2485895   -3.0765369 
   1.4850392    7.6665046   -5.3031867     2.227002   -3.0761847 
    1.501676    7.5652839   -5.3284548    2.2519509   -3.0765039 
   1.4980971    7.5685523   -5.3230444    2.2465839   -3.0764605 
   1.4917329    7.6184358   -5.3133896      2.23704   -3.0763496 
   1.4633683     7.808154   -5.2706472    2.1945036   -3.0761435 
    1.476372    7.7105918   -5.2902141    2.2140043   -3.0762098 
   1.4661473    7.7602615   -5.2749989    2.1986711   -3.0763278 
   1.4682347     7.745245   -5.2779066    2.2018015   -3.0761051 
   1.4608585    7.7701957   -5.2671347    2.1907399   -3.0763948 
   1.4889218    7.6605912   -5.3090852    2.2328243   -3.0762608 
   1.4962138    7.5898681   -5.3199574    2.2437596   -3.0761978 
   1.5026165    7.5564371    -5.329666    2.2533613   -3.0763048 
   1.4815072    7.6795981   -5.2977209    2.2217052   -3.0760157 
   1.4908363    7.5706696   -5.3116223    2.2356953    -3.075927 
   1.4724488    7.7353334   -5.2845442     2.208121   -3.0764231 
   1.4746962    7.7338229   -5.2879056    2.2114913   -3.0764143 
   1.4903025    7.6232306   -5.3112406    2.2348949   -3.0763456 
   1.4863148    7.6211217   -5.3049876    2.2289148   -3.0760728 
   1.4613003    7.8279372   -5.2677193    2.1914025   -3.0763168 
   1.4887963    7.6027893   -5.3089435    2.2326362   -3.0763073 
   1.4811831    7.6654971    -5.297515    2.2212192   -3.0762958 
   1.4684835    7.7343292   -5.2784003    2.2021745   -3.0762258 
   1.4831806     7.654762   -5.3004609    2.2242147   -3.0762462 
    1.503187    7.5552795   -5.3305066    2.2542168   -3.0762898 
   1.4832809    7.6365123   -5.3005129    2.2243651   -3.0761478 
     1.48664    7.6125497   -5.3055007    2.2294024   -3.0760982 
   1.4879353    7.6220168   -5.3077375     2.231345   -3.0763925 
   1.4801617    7.6822055   -5.2959504    2.2196875   -3.0762629 
Loop time of 6.73344 on 8 procs for 5000 steps with 4000 atoms

Performance: 128314.778 tau/day, 742.562 timesteps/s
77.9% CPU use with 8 MPI tasks x no OpenMP threads

MPI task timing breakdown:
Section |  min time  |  avg time  |  max time  |%varavg| %total
---------------------------------------------------------------
Pair    | 3.7041     | 3.8715     | 4.0479     |   5.5 | 57.50
Neigh   | 0.38703    | 0.39863    | 0.41515    |   1.3 |  5.92
Comm    | 2.2053     | 2.3918     | 2.5689     |   7.5 | 35.52
Output  | 0.0069418  | 0.010672   | 0.014581   |   2.7 |  0.16
Modify  | 0.041211   | 0.043003   | 0.045218   |   0.6 |  0.64
Other   |            | 0.01792    |            |       |  0.27

Nlocal:    500 ave 507 max 494 min
Histogram: 1 2 0 1 0 1 1 1 0 1
Nghost:    2467.62 ave 2480 max 2453 min
Histogram: 2 0 0 0 0 1 2 2 0 1
Neighs:    34568.6 ave 36024 max 33587 min
Histogram: 2 2 0 1 0 0 1 0 0 2

Total # of neighbors = 276549
Ave neighs/atom = 69.1372
Neighbor list builds = 250
Dangerous builds not checked
Total wall time: 0:00:06
