LAMMPS (11 Aug 2017)
# 3d Lennard-Jones melt

units		lj
atom_style	atomic
boundary p p p

variable	xx equal ${size}
variable	xx equal 10
variable	yy equal ${size}
variable	yy equal 10
variable	zz equal ${size}
variable	zz equal 10


lattice		fcc ${rho}
lattice		fcc 0.524800
Lattice spacing in x,y,z = 1.96799 1.96799 1.96799
region		box block 0 ${xx} 0 ${yy} 0 ${zz}
region		box block 0 10 0 ${yy} 0 ${zz}
region		box block 0 10 0 10 0 ${zz}
region		box block 0 10 0 10 0 10
create_box	1 box
Created orthogonal box = (0 0 0) to (19.6799 19.6799 19.6799)
  2 by 2 by 2 MPI processor grid
create_atoms	1 box
Created 4000 atoms
mass		1 1.0 #39.948

velocity	all create ${T} 1 loop geom dist uniform#create temp seed
velocity	all create 3.500000 1 loop geom dist uniform
timestep    ${dt}
timestep    0.002000

pair_style	lj/cut 3.0
pair_coeff	1 1 1.0 1.0 3.0

neighbor	0.3 bin
neigh_modify	delay 0 every 20 check no

fix	1 all nve

thermo ${Dump}
thermo 50

thermo_style custom temp press pe ke etotal

#dump dump all custom ${Dump} dump.xyz id type x y z vx vy vz
run		${Run}
run		5000
Neighbor list info ...
  update every 20 steps, delay 0 steps, check no
  max neighbors/atom: 2000, page size: 100000
  master list distance cutoff = 3.3
  ghost atom cutoff = 3.3
  binsize = 1.65, bins = 12 12 12
  1 neighbor lists, perpetual/occasional/extra = 1 0 0
  (1) pair lj/cut, perpetual
      attributes: half, newton on
      pair build: half/bin/atomonly/newton
      stencil: half/bin/3d/newton
      bin: standard
Per MPI rank memory allocation (min/avg/max) = 2.645 | 2.645 | 2.645 Mbytes
Temp Press PotEng KinEng TotEng 
         3.5   -1.1948236   -3.3479594    5.2486875    1.9007281 
    2.923764    2.7612366   -2.4972984    4.3845496    1.8872512 
   3.0578375    3.2061798   -2.6974251    4.5856095    1.8881844 
   3.1254162    2.9643324   -2.7984845    4.6869523    1.8884679 
   3.1413294    2.8502175    -2.822911    4.7108162    1.8879051 
   3.0876956     3.046466   -2.7424962    4.6303855    1.8878894 
   3.1211216    2.9182183    -2.792618     4.680512     1.887894 
   3.1294789    2.8814846   -2.8051583    4.6930447    1.8878864 
   3.1551023    2.8021643   -2.8436035    4.7314702    1.8878667 
   3.1601209    2.8076102   -2.8510684    4.7389963    1.8879279 
   3.1470051    2.8730523   -2.8315468    4.7193275    1.8877807 
   3.1466335    2.8972703   -2.8307773    4.7187703     1.887993 
   3.1550071    2.7851973   -2.8432859    4.7313275    1.8880415 
    3.110952    2.9293409    -2.777313    4.6652614    1.8879484 
   3.1218623    2.8848626   -2.7935569    4.6816227    1.8880658 
   3.1110294    2.9300985    -2.777483    4.6653775    1.8878946 
   3.1091814    2.9490071   -2.7745943    4.6626061    1.8880118 
   3.1341774    2.8538958   -2.8121771    4.7000909    1.8879138 
   3.1252888    2.8696601   -2.7988397    4.6867612    1.8879215 
   3.1097655    2.9233994   -2.7753888    4.6634821    1.8880933 
    3.105285    2.9643527   -2.7687203     4.656763    1.8880428 
    3.102465    3.0126686   -2.7643832    4.6525341    1.8881509 
   3.1053019     3.026329   -2.7688924    4.6567884    1.8878961 
   3.1385918    2.8585038   -2.8189906    4.7067108    1.8877202 
   3.1260971    2.8852066   -2.7999723    4.6879734    1.8880011 
   3.1244633    2.9620043   -2.7977311    4.6855234    1.8877922 
   3.1064001    3.0374993   -2.7705369    4.6584353    1.8878984 
   3.1245618    2.9289632   -2.7978074     4.685671    1.8878635 
   3.1096812    2.9939281   -2.7752794    4.6633557    1.8880763 
   3.1389336    2.8831942    -2.819396    4.7072233    1.8878273 
   3.1448864    2.8423812   -2.8283559    4.7161503    1.8877944 
   3.0955158    3.0148345   -2.7542378    4.6421129    1.8878751 
   3.1010226    2.9934648   -2.7625883     4.650371    1.8877827 
   3.1288746    2.9074324   -2.8040859    4.6921386    1.8880527 
   3.1204228    2.9075273   -2.7911963     4.679464    1.8882677 
   3.1179032    2.9140054   -2.7876157    4.6756856    1.8880699 
   3.0948236    3.0224025    -2.752831    4.6410749    1.8882438 
    3.100793    3.0411738   -2.7619487    4.6500267     1.888078 
   3.1224541    2.9294569    -2.794321    4.6825103    1.8881893 
   3.1086925    2.9688468   -2.7737585     4.661873    1.8881146 
   3.1160674    2.9206927   -2.7845809    4.6729326    1.8883517 
   3.1304552    2.8584742    -2.806688    4.6945089    1.8878209 
   3.1127309    2.9415767   -2.7798637    4.6679291    1.8880654 
   3.1087448    2.9442158   -2.7741413    4.6619515    1.8878102 
   3.1467863    2.8904245   -2.8312289    4.7189995    1.8877705 
   3.1213406    2.9876278   -2.7930451    4.6808404    1.8877953 
   3.1657943     2.799625   -2.8597175    4.7475043    1.8877868 
   3.1114944    2.9806772   -2.7783355    4.6660748    1.8877392 
   3.1204436    2.9156065   -2.7915626    4.6794953    1.8879327 
   3.1061421    2.9304674   -2.7701348    4.6580484    1.8879136 
   3.1210858    2.8845138   -2.7925057    4.6804584    1.8879527 
   3.1354715    2.8525213   -2.8141275    4.7020315     1.887904 
    3.138978    2.8155047   -2.8196382    4.7072899    1.8876516 
   3.1367179    2.8597106   -2.8162006    4.7039006       1.8877 
   3.1085624    2.9695527   -2.7737233    4.6616779    1.8879546 
   3.1461397    2.8169264   -2.8299571    4.7180297    1.8880726 
    3.106482    2.9733235   -2.7705575    4.6585581    1.8880006 
   3.1268024    2.9042505   -2.8011837     4.689031    1.8878474 
     3.12181    2.9146765   -2.7936926    4.6815443    1.8878517 
   3.1344598    2.8340071    -2.812538    4.7005142    1.8879762 
   3.1316487    2.8644724   -2.8081887    4.6962987    1.8881099 
   3.1044875     2.974837   -2.7674436    4.6555671    1.8881235 
   3.1348199    2.8722248   -2.8128254    4.7010542    1.8882288 
    3.126205    2.9262525   -2.8001151    4.6881352    1.8880201 
   3.1194873     2.921711   -2.7901417    4.6780611    1.8879194 
   3.1336612    2.8701748   -2.8116205    4.6993166    1.8876961 
   3.1428519    2.8351563   -2.8252723    4.7130993     1.887827 
   3.1223549    2.9507874   -2.7946653    4.6823614    1.8876962 
   3.1223076    2.9734839   -2.7943838    4.6822905    1.8879067 
   3.1298427    2.9497597   -2.8059931    4.6935903    1.8875972 
   3.1140865    2.9415286   -2.7827045     4.669962    1.8872575 
   3.0886331    3.0190153   -2.7442395    4.6317914    1.8875519 
   3.0863847    3.0579726   -2.7406605    4.6284196    1.8877592 
   3.1211638    2.9778794    -2.792638    4.6805752    1.8879372 
    3.152923    2.8495286   -2.8402436    4.7282022    1.8879586 
   3.1294193    2.9040095   -2.8045502    4.6929554    1.8884052 
   3.1266418    2.9060321   -2.8006963    4.6887903    1.8880939 
   3.1173725    2.9328515   -2.7871873    4.6748897    1.8877024 
   3.1188844     2.905146   -2.7895021     4.677157    1.8876549 
   3.1069321     3.008385   -2.7714033     4.659233    1.8878298 
   3.1014843    3.0802154   -2.7631464    4.6510634     1.887917 
   3.1193708    2.9788949   -2.7902315    4.6778864    1.8876549 
   3.1321929    2.8707956   -2.8093241    4.6971147    1.8877906 
    3.135351    2.8876787   -2.8139591    4.7018507    1.8878916 
   3.0863336    3.0607696    -2.740587     4.628343    1.8877559 
   3.1467179    2.8266392   -2.8312605    4.7188969    1.8876364 
   3.1247845    2.9044398   -2.7981439    4.6860049     1.887861 
   3.1216069    2.9184731   -2.7931365    4.6812397    1.8881032 
   3.0941695    3.0278467   -2.7521202     4.640094    1.8879738 
   3.1265931     2.928781   -2.8008435    4.6887172    1.8878737 
   3.0972479     3.084779   -2.7569094    4.6447104     1.887801 
   3.1165523    2.9750554   -2.7858335    4.6736598    1.8878263 
   3.1428174    2.8130452   -2.8251497    4.7130476    1.8878979 
   3.1080176    2.9389944   -2.7729397    4.6608609    1.8879212 
   3.1500136    2.8412152   -2.8361728    4.7238392    1.8876664 
   3.1167748    2.9579606   -2.7863028    4.6739935    1.8876906 
   3.1487938    2.8051356   -2.8338623    4.7220099    1.8881476 
   3.1234673    2.9157575   -2.7961777    4.6840297     1.887852 
   3.0963868    3.0114444   -2.7553663    4.6434191    1.8880529 
     3.10402    2.9747579   -2.7669021     4.654866     1.887964 
    3.133804     2.878155   -2.8117837    4.6995308    1.8877471 
Loop time of 3.87355 on 8 procs for 5000 steps with 4000 atoms

Performance: 223051.471 tau/day, 1290.807 timesteps/s
79.6% CPU use with 8 MPI tasks x no OpenMP threads

MPI task timing breakdown:
Section |  min time  |  avg time  |  max time  |%varavg| %total
---------------------------------------------------------------
Pair    | 2.1251     | 2.2152     | 2.2835     |   3.7 | 57.19
Neigh   | 0.25729    | 0.26491    | 0.26954    |   0.8 |  6.84
Comm    | 1.261      | 1.334      | 1.4348     |   5.1 | 34.44
Output  | 0.0026474  | 0.0057445  | 0.011442   |   3.3 |  0.15
Modify  | 0.039154   | 0.040122   | 0.040764   |   0.3 |  1.04
Other   |            | 0.0136     |            |       |  0.35

Nlocal:    500 ave 520 max 473 min
Histogram: 1 0 0 2 0 1 0 2 1 1
Nghost:    1834.38 ave 1866 max 1814 min
Histogram: 3 0 0 1 1 2 0 0 0 1
Neighs:    19571 ave 20623 max 17944 min
Histogram: 1 1 1 0 0 0 0 1 2 2

Total # of neighbors = 156568
Ave neighs/atom = 39.142
Neighbor list builds = 250
Dangerous builds not checked
Total wall time: 0:00:03
