LAMMPS (11 Aug 2017)
# 3d Lennard-Jones melt

units		lj
atom_style	atomic
boundary p p p

variable	xx equal ${size}
variable	xx equal 10
variable	yy equal ${size}
variable	yy equal 10
variable	zz equal ${size}
variable	zz equal 10


lattice		fcc ${rho}
lattice		fcc 0.109000
Lattice spacing in x,y,z = 3.32311 3.32311 3.32311
region		box block 0 ${xx} 0 ${yy} 0 ${zz}
region		box block 0 10 0 ${yy} 0 ${zz}
region		box block 0 10 0 10 0 ${zz}
region		box block 0 10 0 10 0 10
create_box	1 box
Created orthogonal box = (0 0 0) to (33.2311 33.2311 33.2311)
  2 by 2 by 2 MPI processor grid
create_atoms	1 box
Created 4000 atoms
mass		1 1.0 #39.948

velocity	all create ${T} 1 loop geom dist uniform#create temp seed
velocity	all create 2.420000 1 loop geom dist uniform
timestep    ${dt}
timestep    0.002000

pair_style	lj/cut 3.0
pair_coeff	1 1 1.0 1.0 3.0

neighbor	0.3 bin
neigh_modify	delay 0 every 20 check no

fix	1 all nve

thermo ${Dump}
thermo 50

thermo_style custom temp press pe ke etotal

#dump dump all custom ${Dump} dump.xyz id type x y z vx vy vz
run		${Run}
run		5000
Neighbor list info ...
  update every 20 steps, delay 0 steps, check no
  max neighbors/atom: 2000, page size: 100000
  master list distance cutoff = 3.3
  ghost atom cutoff = 3.3
  binsize = 1.65, bins = 21 21 21
  1 neighbor lists, perpetual/occasional/extra = 1 0 0
  (1) pair lj/cut, perpetual
      attributes: half, newton on
      pair build: half/bin/atomonly/newton
      stencil: half/bin/3d/newton
      bin: standard
Per MPI rank memory allocation (min/avg/max) = 2.587 | 2.587 | 2.587 Mbytes
Temp Press PotEng KinEng TotEng 
        2.42   0.23300263  -0.14172505    3.6290925    3.4873674 
   2.4337598   0.22992434  -0.16346665     3.649727    3.4862604 
   2.5005477   0.22051922  -0.26299198    3.7498838    3.4868918 
   2.5283748   0.31662985  -0.30287342     3.791614    3.4887406 
   2.6300323   0.31367861  -0.45477605    3.9440622    3.4892861 
   2.6784302   0.29515376  -0.52738662    4.0166409    3.4892542 
   2.6831366   0.30683486  -0.53485427    4.0236987    3.4888444 
   2.6868665   0.31025499  -0.54093318    4.0292922     3.488359 
   2.7009934   0.29134191  -0.56230411    4.0504772    3.4881731 
   2.6955797   0.29581887  -0.55446199    4.0423587    3.4878967 
   2.7059553   0.29275777   -0.5700044    4.0579183    3.4879139 
   2.7129733   0.29427854  -0.58069474    4.0684426    3.4877479 
   2.7144661   0.29755605  -0.58296932    4.0706812    3.4877119 
   2.7053585   0.30407002  -0.56929234    4.0570233     3.487731 
   2.7109252   0.29524027  -0.57777859    4.0653713    3.4875927 
   2.7139261   0.29210441  -0.58239789    4.0698715    3.4874736 
   2.7183787   0.29493408  -0.58910672    4.0765486    3.4874419 
   2.7119298   0.30759434  -0.57957197    4.0668777    3.4873057 
   2.7276241   0.29423981  -0.60314479    4.0904133    3.4872685 
   2.7252689   0.29712955  -0.59973345    4.0868813    3.4871479 
   2.7278653   0.29916018   -0.6037468     4.090775    3.4870282 
   2.7278593   0.29990505    -0.603786     4.090766      3.48698 
   2.7370552   0.29138024  -0.61744634    4.1045564    3.4871101 
   2.7385034    0.2959097  -0.61950613    4.1067282    3.4872221 
   2.7262041    0.3029639  -0.60114102    4.0882838    3.4871428 
   2.7141729   0.30804494  -0.58330004    4.0702415    3.4869415 
   2.7262593   0.29208633  -0.60135209    4.0883665    3.4870144 
   2.7305254   0.28913831  -0.60781895    4.0947641    3.4869452 
   2.7300295   0.29463443  -0.60689711    4.0940205    3.4871234 
   2.7357378    0.2959457  -0.61556122    4.1025808    3.4870196 
   2.7240652   0.30522735   -0.5981586    4.0850763    3.4869177 
   2.7409763   0.28641766  -0.62358342    4.1104366    3.4868531 
   2.7308745   0.30272272  -0.60834916    4.0952876    3.4869385 
   2.7308261    0.3062298   -0.6081115    4.0952151    3.4871036 
   2.7259969   0.30977093  -0.60080556     4.087973    3.4871675 
   2.7339906   0.29564315  -0.61288374    4.0999606    3.4870769 
   2.7195301   0.30089947  -0.59123337    4.0782753    3.4870419 
   2.7251681   0.29129669   -0.5995272    4.0867302     3.487203 
    2.729532   0.29292247   -0.6061014    4.0932745    3.4871731 
    2.727024    0.3017253  -0.60233316    4.0895133    3.4871802 
   2.7266701   0.30247357  -0.60164442    4.0889826    3.4873382 
   2.7347704   0.29192335  -0.61372906      4.10113     3.487401 
    2.733952   0.29947375  -0.61234889    4.0999028    3.4875539 
   2.7215286    0.3122384  -0.59392717    4.0812724    3.4873452 
   2.7387008   0.28992083  -0.61973364    4.1070242    3.4872906 
   2.7361674    0.2878995  -0.61615881    4.1032251    3.4870663 
   2.7197691   0.30417438  -0.59163004    4.0786337    3.4870036 
    2.733753   0.29479322   -0.6127941    4.0996044    3.4868103 
   2.7305806   0.30675767  -0.60804674    4.0948469    3.4868002 
   2.7378807   0.30164826  -0.61903901    4.1057944    3.4867554 
    2.740865   0.29555023  -0.62352696    4.1102697    3.4867427 
    2.736441   0.30556565   -0.6170669    4.1036353    3.4865684 
   2.7294892   0.31328201  -0.60650616    4.0932103    3.4867041 
   2.7355737    0.3036994   -0.6157067    4.1023347     3.486628 
   2.7483309   0.28696712  -0.63490611    4.1214657    3.4865596 
   2.7409818   0.29597636   -0.6237061    4.1104449    3.4867388 
   2.7436695   0.30188417  -0.62767749    4.1144754    3.4867979 
   2.7467119   0.29960219  -0.63222913    4.1190378    3.4868087 
   2.7444111   0.30032936   -0.6289206    4.1155875    3.4866669 
   2.7476396    0.3004951  -0.63384144     4.120429    3.4865875 
   2.7512464   0.29789653  -0.63928162    4.1258379    3.4865563 
   2.7517005   0.29241882  -0.63993432    4.1265189    3.4865846 
   2.7425573   0.29652482  -0.62635557    4.1128074    3.4864518 
   2.7424305   0.29372045  -0.62592591    4.1126174    3.4866915 
   2.7469828   0.28930429  -0.63258694    4.1194441    3.4868571 
   2.7437895   0.29573831  -0.62782487    4.1146553    3.4868305 
   2.7478079   0.28910277  -0.63376964    4.1206814    3.4869117 
   2.7525614   0.28309683  -0.64101469    4.1278099    3.4867952 
     2.73885   0.29942469  -0.62053672     4.107248    3.4867112 
   2.7442129   0.29588725  -0.62843898    4.1152903    3.4868513 
   2.7370598   0.30057083  -0.61772925    4.1045634    3.4868341 
   2.7451373   0.29020878  -0.62977402    4.1166765    3.4869025 
   2.7471179   0.28853535  -0.63263799    4.1196466    3.4870087 
   2.7302062   0.30633915  -0.60737746    4.0942855     3.486908 
   2.7360953   0.30486334  -0.61640387    4.1031169     3.486713 
   2.7396121   0.30404532  -0.62158537    4.1083907    3.4868054 
   2.7352226   0.31054661   -0.6149975    4.1018082    3.4868107 
   2.7518999   0.29191477  -0.63999497    4.1268178    3.4868229 
   2.7463734    0.2930592  -0.63172425    4.1185303     3.486806 
   2.7421304   0.29786802  -0.62560521    4.1121673    3.4865621 
   2.7448479   0.29737896  -0.62974249    4.1162425       3.4865 
   2.7491871     0.296081  -0.63628915    4.1227497    3.4864605 
   2.7404765   0.30561866  -0.62322891     4.109687    3.4864581 
   2.7476574   0.29876257  -0.63404709    4.1204558    3.4864087 
   2.7428413   0.29578695   -0.6268023    4.1132334    3.4864311 
   2.7417998    0.2916811  -0.62525334    4.1116716    3.4864183 
   2.7401014   0.29969938  -0.62267126    4.1091246    3.4864534 
   2.7401096   0.30520576  -0.62275067    4.1091369    3.4863862 
   2.7324336   0.31151005  -0.61128709    4.0976257    3.4863386 
   2.7421972   0.30066075  -0.62574949    4.1122675     3.486518 
   2.7357003   0.30676926  -0.61600705    4.1025246    3.4865176 
   2.7468843   0.29339682  -0.63284147    4.1192964    3.4864549 
   2.7371642   0.29716807   -0.6182508    4.1047199    3.4864691 
   2.7455172   0.29338351  -0.63077268    4.1172462    3.4864735 
    2.740051   0.30683008  -0.62256142     4.109049    3.4864875 
   2.7443671   0.29981029  -0.62899183    4.1155215    3.4865297 
   2.7476355   0.29448911  -0.63377787    4.1204229    3.4866451 
   2.7445473   0.29798858  -0.62907597    4.1157917    3.4867157 
   2.7491566   0.28964151  -0.63599054     4.122704    3.4867135 
   2.7438891   0.29752988  -0.62806226    4.1148047    3.4867424 
    2.739651   0.30247055  -0.62170429    4.1084491    3.4867448 
Loop time of 1.8588 on 8 procs for 5000 steps with 4000 atoms

Performance: 464815.609 tau/day, 2689.905 timesteps/s
56.8% CPU use with 8 MPI tasks x no OpenMP threads

MPI task timing breakdown:
Section |  min time  |  avg time  |  max time  |%varavg| %total
---------------------------------------------------------------
Pair    | 0.4202     | 0.4825     | 0.53016    |   4.9 | 25.96
Neigh   | 0.10282    | 0.11378    | 0.1205     |   1.7 |  6.12
Comm    | 1.1424     | 1.1973     | 1.277      |   3.9 | 64.41
Output  | 0.0096002  | 0.01187    | 0.017898   |   2.2 |  0.64
Modify  | 0.037838   | 0.043371   | 0.054745   |   2.5 |  2.33
Other   |            | 0.009987   |            |       |  0.54

Nlocal:    500 ave 538 max 465 min
Histogram: 1 0 2 1 1 0 1 1 0 1
Nghost:    891.375 ave 917 max 866 min
Histogram: 1 1 0 0 3 0 1 0 1 1
Neighs:    4054.88 ave 4620 max 3565 min
Histogram: 1 0 3 0 0 1 1 1 0 1

Total # of neighbors = 32439
Ave neighs/atom = 8.10975
Neighbor list builds = 250
Dangerous builds not checked
Total wall time: 0:00:01
