LAMMPS (11 Aug 2017)
# 3d Lennard-Jones melt

units		lj
atom_style	atomic
boundary p p p

variable	xx equal ${size}
variable	xx equal 10
variable	yy equal ${size}
variable	yy equal 10
variable	zz equal ${size}
variable	zz equal 10


lattice		fcc ${rho}
lattice		fcc 0.010000
Lattice spacing in x,y,z = 7.36806 7.36806 7.36806
region		box block 0 ${xx} 0 ${yy} 0 ${zz}
region		box block 0 10 0 ${yy} 0 ${zz}
region		box block 0 10 0 10 0 ${zz}
region		box block 0 10 0 10 0 10
create_box	1 box
Created orthogonal box = (0 0 0) to (73.6806 73.6806 73.6806)
  2 by 2 by 2 MPI processor grid
create_atoms	1 box
Created 4000 atoms
mass		1 1.0 #39.948

velocity	all create ${T} 1 loop geom dist uniform#create temp seed
velocity	all create 0.680000 1 loop geom dist uniform
timestep    ${dt}
timestep    0.002000

pair_style	lj/cut 3.0
pair_coeff	1 1 1.0 1.0 3.0

neighbor	0.3 bin
neigh_modify	delay 0 every 20 check no

fix	1 all nve

thermo ${Dump}
thermo 50

thermo_style custom temp press pe ke etotal

#dump dump all custom ${Dump} dump.xyz id type x y z vx vy vz
run		${Run}
run		5000
Neighbor list info ...
  update every 20 steps, delay 0 steps, check no
  max neighbors/atom: 2000, page size: 100000
  master list distance cutoff = 3.3
  ghost atom cutoff = 3.3
  binsize = 1.65, bins = 45 45 45
  1 neighbor lists, perpetual/occasional/extra = 1 0 0
  (1) pair lj/cut, perpetual
      attributes: half, newton on
      pair build: half/bin/atomonly/newton
      stencil: half/bin/3d/newton
      bin: standard
Per MPI rank memory allocation (min/avg/max) = 2.644 | 2.644 | 2.644 Mbytes
Temp Press PotEng KinEng TotEng 
        0.68    0.0067983            0     1.019745     1.019745 
        0.68    0.0067983            0     1.019745     1.019745 
        0.68    0.0067983            0     1.019745     1.019745 
        0.68    0.0067983            0     1.019745     1.019745 
        0.68    0.0067983            0     1.019745     1.019745 
        0.68    0.0067983            0     1.019745     1.019745 
  0.68000031 0.0067982665 -1.8369131e-06    1.0197455    1.0197436 
  0.68000687 0.0067976166 -3.7686389e-05    1.0197553    1.0197176 
  0.68005584 0.0067946771 -0.00020972158    1.0198287     1.019619 
  0.68023555 0.0067874663 -0.00066414981    1.0200982    1.0194341 
  0.68076609 0.0067737214 -0.0016871059    1.0208938    1.0192067 
  0.68117421 0.0068112547  -0.00251653    1.0215059    1.0189894 
  0.68348057 0.0067967501 -0.0062241429    1.0249646    1.0187404 
  0.68610211 0.0068814237 -0.010366211    1.0288959    1.0185297 
  0.69106445 0.0068943915 -0.018017532    1.0363375      1.01832 
  0.69448584 0.0070450587 -0.023310662    1.0414683    1.0181577 
   0.6993438 0.0069839295 -0.030760597    1.0487534    1.0179928 
  0.70236395 0.0070465168 -0.035437991    1.0532825    1.0178445 
  0.70457443 0.0070004818 -0.038888725    1.0565974    1.0177087 
  0.70642994 0.0068568484 -0.041762011      1.05938     1.017618 
  0.70842999  0.006733377 -0.044878089    1.0623793    1.0175012 
  0.70791652 0.0069085654 -0.044181994    1.0616093    1.0174273 
  0.70793534 0.0069544917 -0.044261791    1.0616375    1.0173757 
  0.71044338 0.0067270337 -0.048096876    1.0653987    1.0173018 
  0.70996395 0.0068691957 -0.047421968    1.0646797    1.0172577 
  0.71136958 0.0068527572 -0.049627498    1.0667876    1.0171601 
  0.71277215 0.0067994054 -0.051788476    1.0688909    1.0171025 
   0.7116887 0.0069652426 -0.050196452    1.0672662    1.0170697 
  0.71519207  0.006737165 -0.055482954    1.0725199     1.017037 
  0.71452815 0.0069367481 -0.054517554    1.0715243    1.0170067 
   0.7139844 0.0070563886 -0.053726228    1.0707089    1.0169826 
  0.71622448 0.0067720397 -0.057099581    1.0740681    1.0169686 
  0.71448169 0.0068950859 -0.054517308    1.0714546    1.0169373 
  0.71537538  0.006799333 -0.055876268    1.0727948    1.0169185 
  0.71651973 0.0066851688  -0.05763728    1.0745109    1.0168736 
  0.71401415 0.0069749434 -0.053896518    1.0707535     1.016857 
  0.71565447 0.0068323536 -0.056360326    1.0732133     1.016853 
  0.71536381  0.006777857 -0.055933542    1.0727775    1.0168439 
  0.71688954 0.0066555601 -0.058216263    1.0750655    1.0168492 
  0.71664143 0.0067924992 -0.057871431    1.0746934     1.016822 
  0.71727132 0.0068207925 -0.058836815     1.075638    1.0168012 
  0.71798326 0.0067637711 -0.059909666    1.0767056     1.016796 
  0.71689302 0.0068963014 -0.058277333    1.0750707    1.0167934 
  0.71874252 0.0067564149 -0.061045745    1.0778443    1.0167985 
   0.7181255 0.0067911933 -0.060120329     1.076919    1.0167986 
  0.71892103 0.0067620968 -0.061355699    1.0781119    1.0167562 
  0.71912494 0.0068313926 -0.061663044    1.0784177    1.0167547 
  0.71875864 0.0069235842  -0.06111198    1.0778684    1.0167564 
  0.72051454 0.0067814406  -0.06373495    1.0805016    1.0167667 
  0.71937335 0.0068633453 -0.062002301    1.0787903     1.016788 
  0.72070247 0.0067737226 -0.063993103    1.0807834    1.0167903 
  0.72005821  0.006908773 -0.063033293    1.0798173     1.016784 
  0.72106353 0.0068753083 -0.064579908    1.0813249     1.016745 
  0.72105511  0.006921517 -0.064568083    1.0813123    1.0167442 
  0.72141854 0.0068268703 -0.065109644    1.0818573    1.0167476 
  0.72143609 0.0067130132 -0.065099605    1.0818836     1.016784 
  0.71959983 0.0068773781 -0.062357118    1.0791299    1.0167728 
  0.72068632 0.0067415598 -0.063987966    1.0807592    1.0167713 
  0.72097289 0.0066630468 -0.064450278     1.081189    1.0167387 
  0.71970617 0.0068485219 -0.062527883    1.0792894    1.0167615 
  0.72168301 0.0068328189 -0.065523141    1.0822539    1.0167307 
  0.72341191 0.0068539982 -0.068132622    1.0848466     1.016714 
  0.72262421   0.00704799 -0.066915224    1.0836653    1.0167501 
   0.7238525 0.0069242506 -0.068793351    1.0855073     1.016714 
  0.72366674 0.0068362182 -0.068527196    1.0852287    1.0167015 
  0.72449298 0.0066823666 -0.069773243    1.0864678    1.0166945 
  0.72404157 0.0067755157  -0.06909789    1.0857908    1.0166929 
  0.72257544 0.0069171731 -0.066905862    1.0835922    1.0166863 
  0.72291231 0.0067634308 -0.067427108    1.0840974    1.0166703 
  0.72345765 0.0066893462 -0.068261631    1.0849152    1.0166535 
  0.72314073 0.0067682186 -0.067833143    1.0844399    1.0166068 
  0.72405621 0.0067550201 -0.069174091    1.0858128    1.0166387 
   0.7235499 0.0068750849 -0.068381081    1.0850535    1.0166724 
   0.7252964 0.0067368442 -0.071038558    1.0876726    1.0166341 
   0.7236128 0.0068956416 -0.068519351    1.0851478    1.0166285 
  0.72419034 0.0068223384 -0.069377769    1.0860139    1.0166362 
  0.72461556 0.0067176095 -0.070001963    1.0866516    1.0166497 
  0.72374404 0.0067867119 -0.068705472    1.0853447    1.0166392 
  0.72469158 0.0067481062  -0.07012173    1.0867656    1.0166439 
  0.72480677 0.0067510293 -0.070286362    1.0869384     1.016652 
  0.72549441 0.0067063618 -0.071350215    1.0879696    1.0166193 
  0.72310861 0.0069844744 -0.067764043    1.0843917    1.0166277 
   0.7253374  0.006758875 -0.071127087    1.0877341     1.016607 
  0.72408419 0.0068305542  -0.06921538    1.0858548    1.0166394 
    0.723946 0.0068605598 -0.069025964    1.0856475    1.0166215 
  0.72610492 0.0067202068 -0.072290531    1.0888851    1.0165946 
  0.72541259 0.0069136448 -0.071263071    1.0878469    1.0165838 
  0.72506091 0.0070153691 -0.070767486    1.0873195     1.016552 
  0.72650516 0.0067693559 -0.072949226    1.0894853    1.0165361 
  0.72660445 0.0067545795  -0.07310419    1.0896342      1.01653 
  0.72557635 0.0069289029 -0.071543011    1.0880924    1.0165494 
  0.72647548  0.006867947 -0.072896443    1.0894408    1.0165444 
  0.72715407 0.0068062011 -0.073905631    1.0904584    1.0165528 
  0.72739157  0.006817501 -0.074257596    1.0908146     1.016557 
   0.7273857 0.0069258933 -0.074288622    1.0908058    1.0165172 
  0.72698387 0.0070276677 -0.073672905    1.0902032    1.0165303 
   0.7263237 0.0069740215 -0.072699154    1.0892132     1.016514 
  0.72765784 0.0066842278 -0.074683188    1.0912139    1.0165307 
  0.72554535 0.0068088708 -0.071508908    1.0880459     1.016537 
  0.72650965 0.0067989521 -0.072977461     1.089492    1.0165146 
  0.72694757 0.0069298813  -0.07363895    1.0901488    1.0165098 
Loop time of 0.725642 on 8 procs for 5000 steps with 4000 atoms

Performance: 1190669.200 tau/day, 6890.447 timesteps/s
47.6% CPU use with 8 MPI tasks x no OpenMP threads

MPI task timing breakdown:
Section |  min time  |  avg time  |  max time  |%varavg| %total
---------------------------------------------------------------
Pair    | 0.048517   | 0.052763   | 0.065933   |   2.6 |  7.27
Neigh   | 0.03624    | 0.038234   | 0.043203   |   1.1 |  5.27
Comm    | 0.54438    | 0.57292    | 0.58405    |   1.8 | 78.95
Output  | 0.0067656  | 0.0082946  | 0.012739   |   2.7 |  1.14
Modify  | 0.038459   | 0.043066   | 0.061509   |   3.5 |  5.93
Other   |            | 0.01037    |            |       |  1.43

Nlocal:    500 ave 537 max 469 min
Histogram: 1 0 2 1 1 1 0 0 1 1
Nghost:    320.875 ave 343 max 278 min
Histogram: 1 0 0 0 0 0 3 2 1 1
Neighs:    390.625 ave 431 max 358 min
Histogram: 2 0 1 1 0 1 1 1 0 1

Total # of neighbors = 3125
Ave neighs/atom = 0.78125
Neighbor list builds = 250
Dangerous builds not checked
Total wall time: 0:00:00
