LAMMPS (11 Aug 2017)
# 3d Lennard-Jones melt

units		lj
atom_style	atomic
boundary p p p

variable	xx equal ${size}
variable	xx equal 10
variable	yy equal ${size}
variable	yy equal 10
variable	zz equal ${size}
variable	zz equal 10


lattice		fcc ${rho}
lattice		fcc 0.782200
Lattice spacing in x,y,z = 1.72285 1.72285 1.72285
region		box block 0 ${xx} 0 ${yy} 0 ${zz}
region		box block 0 10 0 ${yy} 0 ${zz}
region		box block 0 10 0 10 0 ${zz}
region		box block 0 10 0 10 0 10
create_box	1 box
Created orthogonal box = (0 0 0) to (17.2285 17.2285 17.2285)
  2 by 2 by 2 MPI processor grid
create_atoms	1 box
Created 4000 atoms
mass		1 1.0 #39.948

velocity	all create ${T} 1 loop geom dist uniform#create temp seed
velocity	all create 0.920000 1 loop geom dist uniform
timestep    ${dt}
timestep    0.002000

pair_style	lj/cut 3.0
pair_coeff	1 1 1.0 1.0 3.0

neighbor	0.3 bin
neigh_modify	delay 0 every 20 check no

fix	1 all nve

thermo ${Dump}
thermo 50

thermo_style custom temp press pe ke etotal

#dump dump all custom ${Dump} dump.xyz id type x y z vx vy vz
run		${Run}
run		5000
Neighbor list info ...
  update every 20 steps, delay 0 steps, check no
  max neighbors/atom: 2000, page size: 100000
  master list distance cutoff = 3.3
  ghost atom cutoff = 3.3
  binsize = 1.65, bins = 11 11 11
  1 neighbor lists, perpetual/occasional/extra = 1 0 0
  (1) pair lj/cut, perpetual
      attributes: half, newton on
      pair build: half/bin/atomonly/newton
      stencil: half/bin/3d/newton
      bin: standard
Per MPI rank memory allocation (min/avg/max) = 2.643 | 2.643 | 2.643 Mbytes
Temp Press PotEng KinEng TotEng 
        0.92   -5.6294242   -6.3289841     1.379655   -4.9493291 
  0.46534478   -2.0099841   -5.6403628   0.69784266   -4.9425202 
  0.50906984   -1.9483548   -5.7100813   0.76341386   -4.9466674 
  0.49794038   -1.8800138   -5.6950687   0.74672385   -4.9483449 
  0.49677672   -1.8770543   -5.6937672   0.74497878   -4.9487884 
  0.50120952   -1.9273703    -5.700885   0.75162632   -4.9492587 
  0.50729835   -1.9442347   -5.7102027   0.76075728   -4.9494454 
  0.50147834   -1.8618952   -5.7014512   0.75202945   -4.9494217 
   0.5054627   -1.8754811   -5.7075799   0.75800451   -4.9495754 
  0.50507397   -1.8624951    -5.707093   0.75742156   -4.9496715 
  0.50426078    -1.841538   -5.7059435   0.75620207   -4.9497414 
  0.49911299   -1.8153335   -5.6983755   0.74848232   -4.9498931 
  0.50741465    -1.852425   -5.7109593    0.7609317   -4.9500276 
  0.50247785    -1.794963   -5.7036341   0.75352835   -4.9501058 
  0.49709099   -1.7347541   -5.6956979   0.74545008   -4.9502478 
  0.49168261   -1.6906394   -5.6875703   0.73733954   -4.9502308 
  0.50211483   -1.7669461      -5.7033   0.75298395    -4.950316 
  0.50079536    -1.775567   -5.7010715   0.75100524   -4.9500663 
  0.49769092   -1.7330441   -5.6964674   0.74634975   -4.9501176 
  0.49707197   -1.6654132   -5.6959829   0.74542156   -4.9505613 
    0.489498   -1.6071974   -5.6849475   0.73406343   -4.9508841 
  0.48972462   -1.6007269   -5.6852319   0.73440328   -4.9508286 
  0.49111693   -1.5987572   -5.6876985   0.73649122   -4.9512073 
  0.49289131   -1.6131445   -5.6903493   0.73915212   -4.9511972 
  0.49262777   -1.6074975   -5.6898901   0.73875692   -4.9511332 
  0.49680174   -1.6275125   -5.6961496   0.74501631   -4.9511333 
   0.4863478   -1.5581392   -5.6804355   0.72933931   -4.9510962 
  0.49089811   -1.5689435    -5.687566   0.73616308   -4.9514029 
  0.48606503   -1.5367624   -5.6804624   0.72891527   -4.9515471 
  0.49096521   -1.5630138   -5.6877971    0.7362637   -4.9515334 
   0.4891898   -1.5358767   -5.6850066   0.73360125   -4.9514053 
  0.48886662   -1.5420087   -5.6847536   0.73311661    -4.951637 
  0.49106662   -1.5599786   -5.6881766   0.73641578   -4.9517608 
  0.49028705   -1.5397596   -5.6870962   0.73524672   -4.9518495 
  0.49255085   -1.5504871   -5.6905437   0.73864156   -4.9519022 
  0.48735194   -1.4917148   -5.6828634   0.73084516   -4.9520182 
  0.49105493    -1.490528   -5.6885207   0.73639825   -4.9521225 
  0.48438147   -1.4438043   -5.6785763   0.72639057   -4.9521857 
  0.48608321   -1.4633755   -5.6810877   0.72894253   -4.9521451 
  0.49161925   -1.4903134   -5.6893468   0.73724452   -4.9521022 
  0.48548319   -1.4571857   -5.6801488   0.72804273   -4.9521061 
  0.48790162   -1.4704975   -5.6837496   0.73166947   -4.9520802 
  0.48951951   -1.4641814   -5.6861273   0.73409569   -4.9520316 
  0.48261456   -1.4033514   -5.6761377   0.72374086   -4.9523969 
  0.48757472   -1.4200759   -5.6835879   0.73117924   -4.9524087 
  0.48409492   -1.3759406   -5.6783868   0.72596084    -4.952426 
  0.48789984   -1.3814901   -5.6841149   0.73166679   -4.9524481 
  0.48151411   -1.3781635   -5.6744585    0.7220906   -4.9523679 
   0.4890141   -1.4604808   -5.6856405   0.73333778   -4.9523027 
  0.48301619   -1.3993233   -5.6765635   0.72434315   -4.9522203 
  0.48360365   -1.3920836   -5.6776379   0.72522412   -4.9524138 
  0.48387291   -1.3893594   -5.6780345   0.72562792   -4.9524066 
  0.48518789   -1.3991349   -5.6799267   0.72759989   -4.9523268 
  0.48575896   -1.4191814    -5.680617   0.72845629   -4.9521607 
  0.48695605   -1.4169439   -5.6825165   0.73025147    -4.952265 
  0.48609213   -1.3957714    -5.681291   0.72895591   -4.9523351 
  0.47901576   -1.3413318   -5.6707846   0.71834401   -4.9524406 
  0.49030174   -1.4048266   -5.6876917   0.73526874    -4.952423 
  0.48634577   -1.3896457   -5.6817467   0.72933627   -4.9524104 
  0.48843201   -1.4040503     -5.68505   0.73246485   -4.9525852 
  0.48241365   -1.3420206   -5.6761305   0.72343957    -4.952691 
  0.48357998   -1.3407818   -5.6779421   0.72518863   -4.9527534 
  0.48256229   -1.3474187   -5.6764179   0.72366248   -4.9527554 
  0.48095746   -1.3286082   -5.6738371   0.72125583   -4.9525813 
  0.47999937   -1.3172009   -5.6724007   0.71981905   -4.9525817 
  0.48328718   -1.3361757   -5.6774527   0.72474953   -4.9527032 
  0.48515858   -1.3528651   -5.6802018   0.72755594   -4.9526459 
   0.4900526   -1.4187542   -5.6873448   0.73489513   -4.9524496 
  0.48184447   -1.3914392   -5.6750749   0.72258602   -4.9524889 
   0.4802755   -1.3613818   -5.6730918   0.72023315   -4.9528586 
  0.48273924     -1.37038   -5.6765405   0.72392783   -4.9526127 
  0.48105419    -1.367442   -5.6737172   0.72140088   -4.9523163 
  0.49483136    -1.451829   -5.6946513   0.74206148   -4.9525898 
  0.49041982   -1.4379295   -5.6878971   0.73544582   -4.9524512 
  0.48605464   -1.4181735   -5.6815475   0.72889968   -4.9526479 
   0.4833603   -1.3791201    -5.677456   0.72485918   -4.9525969 
  0.48193349   -1.3644154   -5.6751077   0.72271951   -4.9523882 
  0.48508756    -1.395328   -5.6796737   0.72744943   -4.9522242 
  0.48216008   -1.3928272   -5.6754997   0.72305931   -4.9524404 
   0.4835448   -1.3979899   -5.6774994   0.72513587   -4.9523635 
  0.48804168   -1.3954775   -5.6845779   0.73187951   -4.9526984 
  0.48893087   -1.3757207   -5.6857104   0.73321295   -4.9524974 
  0.48599742   -1.3594003   -5.6813146   0.72881388   -4.9525007 
   0.4835237   -1.3597514   -5.6777901   0.72510423   -4.9526859 
  0.48054958     -1.33703   -5.6735209   0.72064416   -4.9528767 
  0.48100631   -1.3050377    -5.674425   0.72132909   -4.9530959 
  0.48653145   -1.3262993   -5.6829163   0.72961473   -4.9533015 
  0.48937249    -1.348141   -5.6869916   0.73387522   -4.9531164 
  0.49386582   -1.3747742   -5.6937134   0.74061353   -4.9530999 
  0.49127877      -1.3551   -5.6894789   0.73673393    -4.952745 
  0.49047571   -1.3502878   -5.6882424   0.73552964   -4.9527128 
  0.49369692   -1.3786123   -5.6932862   0.74036024   -4.9529259 
  0.48822469   -1.3406198    -5.685077   0.73215395    -4.952923 
  0.48888632   -1.3182471   -5.6862084   0.73314615   -4.9530623 
  0.48566647   -1.2855266    -5.681648   0.72831757   -4.9533304 
  0.49710444   -1.3502294   -5.6985714   0.74547024   -4.9531011 
  0.49831586   -1.3370263   -5.7004187   0.74728693   -4.9531317 
   0.4956851   -1.3025333   -5.6968073   0.74334177   -4.9534656 
  0.49388736   -1.2980651   -5.6939759   0.74064583     -4.95333 
  0.49346093   -1.3136117   -5.6932968   0.74000634   -4.9532905 
  0.49445271    -1.320275    -5.694682   0.74149365   -4.9531884 
Loop time of 5.51826 on 8 procs for 5000 steps with 4000 atoms

Performance: 156570.960 tau/day, 906.082 timesteps/s
79.2% CPU use with 8 MPI tasks x no OpenMP threads

MPI task timing breakdown:
Section |  min time  |  avg time  |  max time  |%varavg| %total
---------------------------------------------------------------
Pair    | 3.0666     | 3.1831     | 3.4041     |   5.3 | 57.68
Neigh   | 0.31009    | 0.31977    | 0.33729    |   1.4 |  5.79
Comm    | 1.7077     | 1.9402     | 2.0665     |   7.3 | 35.16
Output  | 0.010018   | 0.016946   | 0.028995   |   5.5 |  0.31
Modify  | 0.04077    | 0.041623   | 0.043025   |   0.4 |  0.75
Other   |            | 0.01664    |            |       |  0.30

Nlocal:    500 ave 514 max 456 min
Histogram: 1 0 0 0 0 0 0 2 2 3
Nghost:    2262 ave 2277 max 2246 min
Histogram: 2 0 0 1 1 0 1 1 0 2
Neighs:    29676 ave 31067 max 25631 min
Histogram: 1 0 0 0 0 0 1 1 3 2

Total # of neighbors = 237408
Ave neighs/atom = 59.352
Neighbor list builds = 250
Dangerous builds not checked
Total wall time: 0:00:05
