LAMMPS (11 Aug 2017)
# 3d Lennard-Jones melt

units		lj
atom_style	atomic
boundary p p p

variable	xx equal ${size}
variable	xx equal 10
variable	yy equal ${size}
variable	yy equal 10
variable	zz equal ${size}
variable	zz equal 10


lattice		fcc ${rho}
lattice		fcc 0.287200
Lattice spacing in x,y,z = 2.40598 2.40598 2.40598
region		box block 0 ${xx} 0 ${yy} 0 ${zz}
region		box block 0 10 0 ${yy} 0 ${zz}
region		box block 0 10 0 10 0 ${zz}
region		box block 0 10 0 10 0 10
create_box	1 box
Created orthogonal box = (0 0 0) to (24.0598 24.0598 24.0598)
  2 by 2 by 2 MPI processor grid
create_atoms	1 box
Created 4000 atoms
mass		1 1.0 #39.948

velocity	all create ${T} 1 loop geom dist uniform#create temp seed
velocity	all create 2.120000 1 loop geom dist uniform
timestep    ${dt}
timestep    0.002000

pair_style	lj/cut 3.0
pair_coeff	1 1 1.0 1.0 3.0

neighbor	0.3 bin
neigh_modify	delay 0 every 20 check no

fix	1 all nve

thermo ${Dump}
thermo 50

thermo_style custom temp press pe ke etotal

#dump dump all custom ${Dump} dump.xyz id type x y z vx vy vz
run		${Run}
run		5000
Neighbor list info ...
  update every 20 steps, delay 0 steps, check no
  max neighbors/atom: 2000, page size: 100000
  master list distance cutoff = 3.3
  ghost atom cutoff = 3.3
  binsize = 1.65, bins = 15 15 15
  1 neighbor lists, perpetual/occasional/extra = 1 0 0
  (1) pair lj/cut, perpetual
      attributes: half, newton on
      pair build: half/bin/atomonly/newton
      stencil: half/bin/3d/newton
      bin: standard
Per MPI rank memory allocation (min/avg/max) = 2.608 | 2.608 | 2.608 Mbytes
Temp Press PotEng KinEng TotEng 
        2.12 0.0099094912   -1.0837355     3.179205    2.0954695 
   2.2619107 -0.0052938569    -1.268945    3.3920178    2.1230728 
   2.2418264   0.83769413    -1.237033     3.361899     2.124866 
   2.4208831   0.85470373   -1.5061632    3.6304168    2.1242536 
   2.4870846   0.79851854   -1.6056995    3.7296942    2.1239947 
   2.4876437   0.79553915   -1.6069916    3.7305327    2.1235411 
   2.4864425   0.79344945   -1.6054841    3.7287313    2.1232472 
   2.4885226   0.78826105   -1.6087222    3.7318508    2.1231286 
   2.5003706   0.76375619   -1.6264311    3.7496182    2.1231871 
   2.5019148   0.77000252   -1.6287517    3.7519339    2.1231822 
   2.4934622   0.79000924   -1.6161762    3.7392582    2.1230821 
   2.5106782   0.73257294    -1.641895    3.7650758    2.1231809 
   2.5082705   0.74626337   -1.6385241    3.7614652    2.1229411 
   2.5013509   0.77238211   -1.6281034    3.7510883    2.1229849 
    2.513023   0.76875403   -1.6456606    3.7685922    2.1229316 
    2.523334   0.74492862    -1.661441    3.7840548    2.1226138 
   2.5100668   0.77388811   -1.6412815    3.7641589    2.1228774 
   2.5125064   0.78887209    -1.645239    3.7678174    2.1225784 
   2.5099676   0.79667697   -1.6413729    3.7640102    2.1226373 
   2.5159416    0.7766466   -1.6502361    3.7729689    2.1227328 
   2.5120815   0.76261837   -1.6446306    3.7671803    2.1225496 
    2.520748   0.74201327      -1.6577    3.7801767    2.1224767 
   2.5142125   0.77190749   -1.6478849     3.770376    2.1224911 
   2.5195587   0.78118759   -1.6558817    3.7783932    2.1225115 
   2.5246226   0.76295041   -1.6634088    3.7859871    2.1225784 
   2.5130411   0.75929265    -1.646014    3.7686192    2.1226052 
   2.5230834   0.74108177   -1.6613379     3.783679    2.1223411 
   2.5220416   0.74209395    -1.659773    3.7821166    2.1223436 
   2.5234917   0.73767583   -1.6621539    3.7842912    2.1221374 
   2.5046974     0.792932     -1.63377    3.7561068    2.1223367 
   2.5265564   0.73743301   -1.6668383    3.7888872    2.1220489 
    2.524787   0.75587642   -1.6641482    3.7862337    2.1220855 
   2.5324695   0.75437408   -1.6757735    3.7977546    2.1219811 
   2.5225559   0.79642992   -1.6608032    3.7828879    2.1220847 
   2.5328327   0.75936375   -1.6762986    3.7982993    2.1220007 
    2.527073   0.76500376   -1.6678653    3.7896618    2.1217965 
   2.5403133   0.73516608   -1.6876315    3.8095173    2.1218859 
   2.5339616   0.76802247   -1.6780835    3.7999922    2.1219087 
    2.543904   0.77256037   -1.6929919     3.814902    2.1219101 
   2.5301965   0.78456206   -1.6723253    3.7943459    2.1220206 
   2.5356723   0.76530003    -1.680453    3.8025576    2.1221045 
   2.5143612   0.81348627   -1.6486032    3.7705989    2.1219956 
    2.533521   0.75021921   -1.6773675    3.7993315    2.1219639 
   2.5403658   0.72511253   -1.6876124     3.809596    2.1219836 
    2.535811   0.73846302   -1.6805897    3.8027656    2.1221759 
   2.5144521   0.78782761   -1.6486866    3.7707352    2.1220486 
   2.5213822   0.75808171    -1.659023    3.7811278    2.1221048 
   2.5195763   0.75705435   -1.6562971    3.7784196    2.1221224 
   2.5072091   0.79419533   -1.6377541    3.7598734    2.1221193 
   2.5308048   0.74593886   -1.6732616    3.7952582    2.1219966 
   2.5079051   0.80201172   -1.6388822    3.7609172    2.1220349 
   2.5151488   0.77299716   -1.6499334    3.7717801    2.1218466 
   2.5099054   0.77523755   -1.6419109    3.7639169    2.1220061 
   2.5039508   0.79450882   -1.6328465    3.7549871    2.1221406 
   2.5193165   0.76494671   -1.6560285      3.77803    2.1220015 
   2.5220054   0.75728113   -1.6601191    3.7820623    2.1219432 
   2.5231972   0.75643497   -1.6617472    3.7838496    2.1221025 
   2.5189776    0.7810113   -1.6555364    3.7775218    2.1219854 
   2.5383224   0.76148882   -1.6844368    3.8065317    2.1220949 
   2.5360696    0.7574059   -1.6811249    3.8031534    2.1220285 
   2.5303117   0.76046414   -1.6725551    3.7945187    2.1219635 
   2.5312171   0.78001847   -1.6738369    3.7958764    2.1220395 
   2.5292211   0.78804511   -1.6706741    3.7928832    2.1222091 
   2.5467837   0.73733932   -1.6970129    3.8192205    2.1222076 
   2.5349901   0.76496496   -1.6793628    3.8015345    2.1221717 
   2.5366838   0.76089073   -1.6817436    3.8040744    2.1223307 
   2.5412811   0.75989651   -1.6888574    3.8109686    2.1221113 
   2.5368342   0.76412916   -1.6824689       3.8043    2.1218311 
   2.5229753   0.78649676     -1.66168    3.7835169    2.1218369 
   2.5272476    0.7643332   -1.6679525    3.7899237    2.1219711 
   2.5149038   0.77591488   -1.6493026    3.7714125    2.1221099 
    2.525828   0.74682474   -1.6655302    3.7877948    2.1222647 
    2.523959   0.73240521   -1.6627698     3.784992    2.1222222 
   2.5101878   0.75776099   -1.6421452    3.7643403    2.1221951 
   2.5246167    0.7451723    -1.663832    3.7859783    2.1221463 
   2.5192401   0.77673317   -1.6557116    3.7779154    2.1222039 
   2.5187958   0.77364063   -1.6549055    3.7772492    2.1223437 
   2.4962676   0.79381443   -1.6213404    3.7434652    2.1221248 
   2.5274392    0.7494937   -1.6681437     3.790211    2.1220674 
   2.5306241   0.77102361   -1.6729902    3.7949871    2.1219969 
   2.5354375   0.76565644   -1.6802727    3.8022055    2.1219328 
   2.5210809   0.79360855   -1.6588807    3.7806759    2.1217952 
   2.5249965   0.78161485   -1.6649184    3.7865478    2.1216295 
   2.5252266   0.78838225   -1.6652071    3.7868929    2.1216859 
    2.530228   0.78368532   -1.6727986    3.7943932    2.1215946 
   2.5171305   0.81942284   -1.6530279    3.7747518    2.1217239 
    2.524903   0.78396268   -1.6646861    3.7864076    2.1217216 
   2.5200007    0.7851487   -1.6572118     3.779056    2.1218442 
   2.5356222   0.75282353   -1.6804991    3.8024825    2.1219834 
   2.5418169   0.73379258    -1.689701    3.8117722    2.1220713 
   2.5347571   0.74956069   -1.6790694    3.8011852    2.1221158 
   2.5253698   0.76875045   -1.6648318    3.7871077    2.1222759 
   2.5124614   0.78601542    -1.645537    3.7677499    2.1222129 
   2.5322223   0.74399954   -1.6752861    3.7973839    2.1220978 
   2.5285877   0.74357892   -1.6697595    3.7919333    2.1221738 
   2.5047502   0.80720972   -1.6337485     3.756186    2.1224375 
     2.51854   0.77912674   -1.6543666    3.7768655    2.1224989 
   2.5463901   0.72210872   -1.6958711    3.8186302    2.1227591 
   2.5202866   0.77140441   -1.6569995    3.7794848    2.1224853 
   2.5072948   0.79732464   -1.6374921    3.7600019    2.1225098 
   2.5251736   0.76921935    -1.664539    3.7868135    2.1222745 
Loop time of 6.10249 on 8 procs for 5000 steps with 4000 atoms

Performance: 141581.458 tau/day, 819.337 timesteps/s
45.2% CPU use with 8 MPI tasks x no OpenMP threads

MPI task timing breakdown:
Section |  min time  |  avg time  |  max time  |%varavg| %total
---------------------------------------------------------------
Pair    | 1.1896     | 1.3074     | 1.4029     |   5.8 | 21.42
Neigh   | 0.18096    | 0.19589    | 0.2182     |   3.0 |  3.21
Comm    | 4.3811     | 4.4934     | 4.5986     |   3.4 | 73.63
Output  | 0.024507   | 0.049384   | 0.079401   |  10.7 |  0.81
Modify  | 0.04134    | 0.043317   | 0.044699   |   0.6 |  0.71
Other   |            | 0.01308    |            |       |  0.21

Nlocal:    500 ave 522 max 476 min
Histogram: 1 0 2 0 1 1 0 1 1 1
Nghost:    1353.25 ave 1365 max 1339 min
Histogram: 2 0 0 0 2 1 0 0 1 2
Neighs:    10718.2 ave 11524 max 9906 min
Histogram: 2 1 0 1 0 0 0 1 2 1

Total # of neighbors = 85746
Ave neighs/atom = 21.4365
Neighbor list builds = 250
Dangerous builds not checked
Total wall time: 0:00:06
