LAMMPS (11 Aug 2017)
# 3d Lennard-Jones melt

units		lj
atom_style	atomic
boundary p p p

variable	xx equal ${size}
variable	xx equal 10
variable	yy equal ${size}
variable	yy equal 10
variable	zz equal ${size}
variable	zz equal 10


lattice		fcc ${rho}
lattice		fcc 0.188200
Lattice spacing in x,y,z = 2.77 2.77 2.77
region		box block 0 ${xx} 0 ${yy} 0 ${zz}
region		box block 0 10 0 ${yy} 0 ${zz}
region		box block 0 10 0 10 0 ${zz}
region		box block 0 10 0 10 0 10
create_box	1 box
Created orthogonal box = (0 0 0) to (27.7 27.7 27.7)
  2 by 2 by 2 MPI processor grid
create_atoms	1 box
Created 4000 atoms
mass		1 1.0 #39.948

velocity	all create ${T} 1 loop geom dist uniform#create temp seed
velocity	all create 3.020000 1 loop geom dist uniform
timestep    ${dt}
timestep    0.002000

pair_style	lj/cut 3.0
pair_coeff	1 1 1.0 1.0 3.0

neighbor	0.3 bin
neigh_modify	delay 0 every 20 check no

fix	1 all nve

thermo ${Dump}
thermo 50

thermo_style custom temp press pe ke etotal

#dump dump all custom ${Dump} dump.xyz id type x y z vx vy vz
run		${Run}
run		5000
Neighbor list info ...
  update every 20 steps, delay 0 steps, check no
  max neighbors/atom: 2000, page size: 100000
  master list distance cutoff = 3.3
  ghost atom cutoff = 3.3
  binsize = 1.65, bins = 17 17 17
  1 neighbor lists, perpetual/occasional/extra = 1 0 0
  (1) pair lj/cut, perpetual
      attributes: half, newton on
      pair build: half/bin/atomonly/newton
      stencil: half/bin/3d/newton
      bin: standard
Per MPI rank memory allocation (min/avg/max) = 2.61 | 2.61 | 2.61 Mbytes
Temp Press PotEng KinEng TotEng 
        3.02   0.40395213  -0.44400937    4.5288675    4.0848581 
   3.0947501   0.38232004  -0.55582452    4.6409647    4.0851401 
   3.1360276    0.6752817  -0.62333009    4.7028654    4.0795353 
   3.2661319   0.76831313  -0.81930092    4.8979731    4.0786722 
   3.3500902   0.72173372  -0.94558381     5.023879    4.0782952 
   3.3624665   0.71610231  -0.96466877    5.0424389    4.0777701 
   3.3669003   0.69192735  -0.97171526    5.0490878    4.0773725 
   3.3683086   0.70271749  -0.97429702    5.0511998    4.0769028 
   3.3851796   0.67149412   -0.9997087    5.0764999    4.0767912 
   3.3766721   0.68236125  -0.98670138    5.0637419    4.0770405 
   3.3785503   0.69132142  -0.98953502    5.0665585    4.0770235 
   3.3977449   0.67276285   -1.0183318    5.0953432    4.0770113 
   3.3824347   0.70518019   -0.9955417    5.0723836    4.0768419 
   3.3933419   0.68321193   -1.0118602    5.0887403    4.0768801 
   3.3993211   0.66941018    -1.020826    5.0977069     4.076881 
   3.3955056   0.68413193   -1.0152325    5.0919851    4.0767526 
    3.384182   0.70242465  -0.99808666    5.0750039    4.0769173 
   3.3796488   0.71169118  -0.99134149    5.0682059    4.0768644 
   3.3952232   0.69099594   -1.0146395    5.0915616    4.0769221 
   3.3848705   0.70682374  -0.99901544    5.0760365    4.0770211 
     3.39298   0.69700075    -1.011254    5.0881976    4.0769436 
   3.3880277   0.70872276    -1.003934    5.0807711     4.076837 
   3.3739161   0.72326383  -0.98279142     5.059609    4.0768176 
   3.4163865   0.65404248    -1.046512    5.1232986    4.0767866 
   3.3893449   0.69908822   -1.0061633    5.0827464    4.0765831 
   3.3905253   0.69717088   -1.0081118    5.0845165    4.0764047 
    3.393319   0.69210919   -1.0122663     5.088706    4.0764397 
   3.3913853   0.70283172   -1.0093992    5.0858061    4.0764069 
   3.4040369   0.68130901   -1.0283126    5.1047788    4.0764662 
   3.3808033   0.70465875   -0.9933928    5.0699372    4.0765444 
   3.3921223   0.68764108   -1.0102597    5.0869114    4.0766517 
   3.3945792   0.69303575   -1.0140449    5.0905959    4.0765509 
   3.3953866   0.70575239   -1.0151702    5.0918067    4.0766365 
   3.3943594   0.70427161   -1.0137308    5.0902662    4.0765354 
   3.4017088   0.68444467   -1.0248199    5.1012876    4.0764678 
   3.4011176   0.68782181   -1.0240363     5.100401    4.0763647 
   3.3776645    0.7163397  -0.98881661    5.0652302    4.0764136 
    3.408223   0.66370965   -1.0345735    5.1110564    4.0764829 
   3.3922569   0.70346171   -1.0106006    5.0871132    4.0765126 
   3.3913026   0.70480333   -1.0091995    5.0856821    4.0764826 
   3.3988957   0.69367194   -1.0204692     5.097069    4.0765999 
   3.4126745   0.68401926   -1.0411742     5.117732    4.0765578 
   3.4045565   0.70260175   -1.0292285     5.105558    4.0763295 
   3.3960886   0.69918556   -1.0164343    5.0928594    4.0764251 
   3.4120868   0.66800449   -1.0405344    5.1168507    4.0763163 
    3.387691   0.70242075   -1.0037718    5.0802661    4.0764944 
   3.4080493   0.67486462   -1.0344078     5.110796    4.0763881 
   3.4020836   0.67796484   -1.0254653    5.1018497    4.0763844 
   3.3816546   0.70949474  -0.99479365    5.0712138    4.0764201 
    3.400328   0.69069678   -1.0227875    5.0992169    4.0764294 
   3.3958221   0.70574362   -1.0161231    5.0924597    4.0763366 
   3.3889017   0.72223798   -1.0058032    5.0820818    4.0762786 
   3.4058066   0.68581153   -1.0312315    5.1074327    4.0762013 
    3.409336   0.67277226   -1.0366828    5.1127256    4.0760428 
   3.3882226   0.70266051   -1.0049831    5.0810633    4.0760801 
   3.4065072   0.67577056   -1.0323672    5.1084833    4.0761161 
   3.3974801   0.69413536   -1.0187854    5.0949461    4.0761607 
   3.3845822   0.72405926  -0.99937842    5.0756041    4.0762257 
   3.3866234   0.70997424   -1.0022355    5.0786651    4.0764296 
   3.3918226   0.70026918   -1.0102489     5.086462    4.0762132 
    3.395196   0.69583201   -1.0154716    5.0915208    4.0760492 
   3.3866094   0.70738322   -1.0024792    5.0786442     4.076165 
   3.3981422   0.69776671   -1.0197925     5.095939    4.0761466 
   3.3921389   0.70772234   -1.0108765    5.0869363    4.0760599 
   3.3910206   0.70075803   -1.0090376    5.0852592    4.0762216 
   3.3975762   0.68666497   -1.0189651    5.0950902    4.0761251 
   3.3977849   0.68025038    -1.019163    5.0954032    4.0762402 
    3.393858   0.69132598   -1.0132471    5.0895143    4.0762672 
   3.3805611   0.72112333  -0.99323656     5.069574    4.0763374 
   3.3858934   0.71520122   -1.0012691    5.0775704    4.0763012 
   3.4032278   0.67757443   -1.0274202    5.1035655    4.0761454 
    3.379457   0.71482991   -0.9917617    5.0679182    4.0761565 
   3.3976086   0.69534741   -1.0189935    5.0951387    4.0761453 
   3.4065391   0.68835342   -1.0324243    5.1085313    4.0761069 
   3.3931138   0.70915463   -1.0121881    5.0883983    4.0762102 
   3.4021765    0.6933081    -1.025712    5.1019889    4.0762769 
   3.3992152   0.69483897   -1.0212645     5.097548    4.0762835 
   3.3936234   0.69610585   -1.0127995    5.0891625     4.076363 
   3.3892312   0.69063294   -1.0062071    5.0825758    4.0763687 
    3.381587    0.7107545  -0.99477308    5.0711125    4.0763394 
   3.3719967   0.72264339  -0.98041841    5.0567305    4.0763121 
   3.3820516    0.7042202  -0.99552391    5.0718092    4.0762853 
   3.3732842   0.72168384  -0.98235004    5.0586614    4.0763113 
   3.3821302   0.70535793  -0.99552903     5.071927     4.076398 
   3.3821855   0.70486079  -0.99542685      5.07201    4.0765831 
   3.3822626   0.69772271  -0.99553593    5.0721255    4.0765896 
   3.4033658   0.66740928     -1.02712    5.1037724    4.0766525 
   3.3972149   0.69729405   -1.0178301    5.0945484    4.0767183 
   3.3951513   0.71357983   -1.0148175    5.0914538    4.0766363 
   3.4082151   0.69408683   -1.0343357    5.1110445    4.0767088 
   3.4100851   0.68272502   -1.0374149    5.1138489     4.076434 
   3.3971618   0.69608907   -1.0179674    5.0944687    4.0765013 
   3.3851876    0.7126352  -0.99995494    5.0765119     4.076557 
   3.3727546   0.73135765  -0.98153911    5.0578671     4.076328 
   3.3876242     0.715743   -1.0038174     5.080166    4.0763486 
    3.385658   0.71512935    -1.000935    5.0772173    4.0762823 
    3.382825   0.72328956  -0.99672267    5.0729689    4.0762462 
   3.3961963   0.70369804   -1.0169236    5.0930209    4.0760973 
   3.3919559   0.72707983   -1.0106167    5.0866618    4.0760451 
   3.3819231   0.73429594  -0.99559182    5.0716164    4.0760246 
   3.3891139   0.70919714   -1.0061051    5.0823999    4.0762948 
Loop time of 3.45645 on 8 procs for 5000 steps with 4000 atoms

Performance: 249967.621 tau/day, 1446.572 timesteps/s
51.7% CPU use with 8 MPI tasks x no OpenMP threads

MPI task timing breakdown:
Section |  min time  |  avg time  |  max time  |%varavg| %total
---------------------------------------------------------------
Pair    | 0.78835    | 0.87593    | 1.0826     |   9.7 | 25.34
Neigh   | 0.14397    | 0.15728    | 0.17464    |   2.8 |  4.55
Comm    | 2.131      | 2.3474     | 2.4457     |   6.2 | 67.91
Output  | 0.014674   | 0.022794   | 0.029446   |   4.1 |  0.66
Modify  | 0.041101   | 0.04381    | 0.050143   |   1.6 |  1.27
Other   |            | 0.009281   |            |       |  0.27

Nlocal:    500 ave 544 max 481 min
Histogram: 2 2 1 1 1 0 0 0 0 1
Nghost:    1092.62 ave 1131 max 1050 min
Histogram: 1 1 0 0 1 1 2 1 0 1
Neighs:    7025.12 ave 8107 max 6492 min
Histogram: 1 1 3 2 0 0 0 0 0 1

Total # of neighbors = 56201
Ave neighs/atom = 14.0503
Neighbor list builds = 250
Dangerous builds not checked
Total wall time: 0:00:03
