LAMMPS (11 Aug 2017)
# 3d Lennard-Jones melt

units		lj
atom_style	atomic
boundary p p p

variable	xx equal ${size}
variable	xx equal 10
variable	yy equal ${size}
variable	yy equal 10
variable	zz equal ${size}
variable	zz equal 10


lattice		fcc ${rho}
lattice		fcc 0.604000
Lattice spacing in x,y,z = 1.87791 1.87791 1.87791
region		box block 0 ${xx} 0 ${yy} 0 ${zz}
region		box block 0 10 0 ${yy} 0 ${zz}
region		box block 0 10 0 10 0 ${zz}
region		box block 0 10 0 10 0 10
create_box	1 box
Created orthogonal box = (0 0 0) to (18.7791 18.7791 18.7791)
  2 by 2 by 2 MPI processor grid
create_atoms	1 box
Created 4000 atoms
mass		1 1.0 #39.948

velocity	all create ${T} 1 loop geom dist uniform#create temp seed
velocity	all create 1.520000 1 loop geom dist uniform
timestep    ${dt}
timestep    0.002000

pair_style	lj/cut 3.0
pair_coeff	1 1 1.0 1.0 3.0

neighbor	0.3 bin
neigh_modify	delay 0 every 20 check no

fix	1 all nve

thermo ${Dump}
thermo 50

thermo_style custom temp press pe ke etotal

#dump dump all custom ${Dump} dump.xyz id type x y z vx vy vz
run		${Run}
run		5000
Neighbor list info ...
  update every 20 steps, delay 0 steps, check no
  max neighbors/atom: 2000, page size: 100000
  master list distance cutoff = 3.3
  ghost atom cutoff = 3.3
  binsize = 1.65, bins = 12 12 12
  1 neighbor lists, perpetual/occasional/extra = 1 0 0
  (1) pair lj/cut, perpetual
      attributes: half, newton on
      pair build: half/bin/atomonly/newton
      stencil: half/bin/3d/newton
      bin: standard
Per MPI rank memory allocation (min/avg/max) = 2.645 | 2.645 | 2.645 Mbytes
Temp Press PotEng KinEng TotEng 
        1.52   -3.3096552   -4.3068617      2.27943   -2.0274317 
   1.2790628  -0.80720447   -3.9162804    1.9181145   -1.9981659 
   1.2377882   0.43986414   -3.8536901    1.8562182   -1.9974719 
   1.2510616    0.5311832    -3.874094    1.8761232   -1.9979708 
   1.2559614   0.58714872   -3.8817539    1.8834712   -1.9982827 
   1.2643579   0.59325025   -3.8942779    1.8960627   -1.9982152 
   1.2774941   0.54965717   -3.9139858    1.9157621   -1.9982236 
   1.2673177   0.57804949   -3.8986196    1.9005013   -1.9981183 
   1.2709796   0.56179844   -3.9043249    1.9059927   -1.9983321 
   1.2780745   0.50394701   -3.9149647    1.9166324   -1.9983323 
   1.2696151   0.53945778    -3.902146    1.9039465   -1.9981995 
   1.2655732   0.59093625   -3.8958948    1.8978853   -1.9980096 
   1.2686913   0.55237418   -3.9007625    1.9025612   -1.9982013 
   1.2656576   0.56249715   -3.8961547    1.8980118   -1.9981429 
    1.267921   0.51623175   -3.8995974     1.901406   -1.9981914 
   1.2585852   0.54301102   -3.8856269    1.8874058   -1.9982212 
   1.2742023   0.46089327    -3.908779    1.9108256   -1.9979534 
   1.2621652   0.52867264   -3.8910202    1.8927745   -1.9982457 
   1.2765361   0.50267944   -3.9125279    1.9143254   -1.9982025 
    1.289021   0.44594544    -3.931244    1.9330482   -1.9981958 
   1.2604442   0.58380463   -3.8882201    1.8901937   -1.9980264 
   1.2803246   0.50515385   -3.9180879    1.9200068   -1.9980811 
   1.2663842   0.58062467   -3.8971723    1.8991015   -1.9980708 
   1.2917995   0.45274028   -3.9353951    1.9372149   -1.9981802 
   1.2849021   0.47837742   -3.9251285    1.9268713   -1.9982572 
   1.2685242   0.55944176   -3.9007354    1.9023106   -1.9984249 
   1.2667176   0.56818734   -3.8979235    1.8996013   -1.9983221 
   1.2734057   0.50725878   -3.9079509     1.909631   -1.9983199 
   1.2691256   0.50010629   -3.9014933    1.9032125   -1.9982807 
   1.2605749   0.56955807   -3.8885296    1.8903897   -1.9981399 
   1.2673959   0.54480764    -3.898818    1.9006185   -1.9981995 
    1.270414   0.54731781   -3.9034066    1.9051446    -1.998262 
   1.2901593   0.47954605   -3.9329462    1.9347551   -1.9981911 
   1.2686778   0.59928989   -3.9011606     1.902541   -1.9986196 
   1.2701967   0.58559453   -3.9033193    1.9048187   -1.9985006 
   1.2813471   0.52201914   -3.9199935    1.9215401   -1.9984534 
   1.2686383   0.57129851   -3.9008181    1.9024817   -1.9983364 
   1.2762517   0.53340877   -3.9122879    1.9138989   -1.9983889 
   1.2646091   0.58660862    -3.894835    1.8964395   -1.9983955 
    1.275811   0.53027769   -3.9115783     1.913238   -1.9983403 
   1.2670249   0.57555494     -3.89854    1.9000622   -1.9984777 
    1.266952   0.58744955   -3.8982166    1.8999529   -1.9982637 
   1.2783376   0.54346631   -3.9156238     1.917027   -1.9985967 
   1.2913013   0.49273035    -3.934986    1.9364677   -1.9985183 
   1.2836717   0.52544081   -3.9233119    1.9250262   -1.9982856 
    1.285113   0.52213968   -3.9255733    1.9271876   -1.9983857 
   1.2746078    0.5869909   -3.9098633    1.9114338   -1.9984295 
   1.2720562   0.56320893   -3.9060417    1.9076073   -1.9984344 
   1.2523069   0.64841032   -3.8763926    1.8779908   -1.9984018 
    1.275905   0.51629819   -3.9116913     1.913379   -1.9983123 
   1.2716259    0.5605798   -3.9053812    1.9069619   -1.9984192 
   1.2714021   0.59046735   -3.9049384    1.9066264   -1.9983121 
   1.2811061   0.53083955   -3.9196557    1.9211787    -1.998477 
   1.2724311   0.55195968    -3.906611    1.9081696   -1.9984414 
   1.2783664   0.53725349   -3.9153677    1.9170702   -1.9982975 
   1.2590354   0.63494114    -3.886779     1.888081    -1.998698 
   1.2732816   0.53658716   -3.9083397    1.9094449   -1.9988947 
   1.2658061   0.55334906    -3.896632    1.8982345   -1.9983975 
   1.2715635   0.53495318   -3.9052979    1.9068684   -1.9984295 
   1.2725665   0.53155696   -3.9068251    1.9083726   -1.9984525 
   1.2656394   0.54369883   -3.8964827    1.8979846   -1.9984982 
   1.2634038   0.58604719   -3.8928813    1.8946319   -1.9982494 
   1.2764637   0.50307112    -3.912274    1.9142169   -1.9980572 
    1.286613   0.41029575   -3.9275453     1.929437   -1.9981083 
   1.2724277   0.47870928   -3.9064532    1.9081644   -1.9982888 
   1.2843179    0.4535187   -3.9241617    1.9259952   -1.9981665 
   1.2810578   0.46408228   -3.9192692    1.9211062   -1.9981629 
   1.2837823   0.45695408   -3.9233387    1.9251921   -1.9981466 
   1.2765628   0.47448836   -3.9126344    1.9143655    -1.998269 
   1.2814858   0.49807029   -3.9199713    1.9217481   -1.9982232 
   1.2691356   0.62104838   -3.9014116    1.9032275   -1.9981841 
   1.2741583   0.59442219   -3.9090028    1.9107596   -1.9982432 
   1.2691635   0.58422561   -3.9014268    1.9032694   -1.9981574 
   1.2732668   0.58375951   -3.9075449    1.9094227   -1.9981222 
   1.2668853   0.59635197   -3.8983338    1.8998529   -1.9984809 
   1.2763229   0.51700508   -3.9121835    1.9140058   -1.9981777 
   1.2694549   0.53206353   -3.9018886    1.9037063   -1.9981823 
   1.2777459    0.5118803    -3.914517    1.9161398   -1.9983773 
   1.2785972   0.50656115   -3.9156285    1.9174163   -1.9982122 
   1.2726066   0.53608212   -3.9064472    1.9084327   -1.9980145 
   1.2804551   0.48755463   -3.9183092    1.9202024   -1.9981068 
   1.2575709   0.59314605    -3.884185    1.8858847   -1.9983003 
    1.304083   0.39556134   -3.9536655    1.9556354   -1.9980301 
   1.2593328   0.62731286   -3.8865915    1.8885269   -1.9980646 
    1.275455   0.53106318   -3.9108561    1.9127042   -1.9981519 
   1.2684799   0.56667842   -3.9006088    1.9022442   -1.9983646 
   1.2633005   0.59803836   -3.8927902     1.894477   -1.9983132 
   1.2772721   0.52307481   -3.9136262    1.9154292    -1.998197 
   1.2668322   0.53743092   -3.8977884    1.8997732   -1.9980151 
   1.2797917    0.4239086   -3.9173335    1.9192076    -1.998126 
   1.2760118   0.48050721   -3.9117111    1.9135392   -1.9981719 
   1.2679016   0.58109823   -3.8997032    1.9013769   -1.9983263 
   1.2740216    0.5666277   -3.9087333    1.9105547   -1.9981786 
   1.2640833   0.60097326   -3.8939688    1.8956509   -1.9983179 
    1.275031   0.52305975   -3.9103937    1.9120684   -1.9983253 
   1.2679832   0.55152474   -3.9000286    1.9014994   -1.9985293 
   1.2604381    0.5906924    -3.888599    1.8901845   -1.9984145 
   1.2727271   0.52803789   -3.9071811    1.9086134   -1.9985677 
    1.270028   0.56342306   -3.9031747    1.9045657    -1.998609 
   1.2696061   0.57069741   -3.9024149    1.9039331   -1.9984818 
   1.2778115   0.55518167   -3.9148476    1.9162381   -1.9986096 
Loop time of 4.43048 on 8 procs for 5000 steps with 4000 atoms

Performance: 195012.847 tau/day, 1128.547 timesteps/s
78.4% CPU use with 8 MPI tasks x no OpenMP threads

MPI task timing breakdown:
Section |  min time  |  avg time  |  max time  |%varavg| %total
---------------------------------------------------------------
Pair    | 2.3949     | 2.5158     | 2.628      |   5.1 | 56.78
Neigh   | 0.2641     | 0.27646    | 0.28978    |   1.7 |  6.24
Comm    | 1.4672     | 1.5802     | 1.7059     |   6.9 | 35.67
Output  | 0.0026333  | 0.003504   | 0.0086939  |   3.3 |  0.08
Modify  | 0.039739   | 0.040599   | 0.042197   |   0.4 |  0.92
Other   |            | 0.014      |            |       |  0.32

Nlocal:    500 ave 531 max 462 min
Histogram: 1 1 0 0 0 1 3 1 0 1
Nghost:    1968.5 ave 1991 max 1942 min
Histogram: 1 1 1 0 0 0 2 1 1 1
Neighs:    22597.4 ave 25528 max 19724 min
Histogram: 1 1 0 0 1 3 1 0 0 1

Total # of neighbors = 180779
Ave neighs/atom = 45.1947
Neighbor list builds = 250
Dangerous builds not checked
Total wall time: 0:00:04
