LAMMPS (11 Aug 2017)
# 3d Lennard-Jones melt

units		lj
atom_style	atomic
boundary p p p

variable	xx equal ${size}
variable	xx equal 10
variable	yy equal ${size}
variable	yy equal 10
variable	zz equal ${size}
variable	zz equal 10


lattice		fcc ${rho}
lattice		fcc 1.000000
Lattice spacing in x,y,z = 1.5874 1.5874 1.5874
region		box block 0 ${xx} 0 ${yy} 0 ${zz}
region		box block 0 10 0 ${yy} 0 ${zz}
region		box block 0 10 0 10 0 ${zz}
region		box block 0 10 0 10 0 10
create_box	1 box
Created orthogonal box = (0 0 0) to (15.874 15.874 15.874)
  2 by 2 by 2 MPI processor grid
create_atoms	1 box
Created 4000 atoms
mass		1 1.0 #39.948

velocity	all create ${T} 1 loop geom dist uniform#create temp seed
velocity	all create 0.680000 1 loop geom dist uniform
timestep    ${dt}
timestep    0.002000

pair_style	lj/cut 3.0
pair_coeff	1 1 1.0 1.0 3.0

neighbor	0.3 bin
neigh_modify	delay 0 every 20 check no

fix	1 all nve

thermo ${Dump}
thermo 50

thermo_style custom temp press pe ke etotal

#dump dump all custom ${Dump} dump.xyz id type x y z vx vy vz
run		${Run}
run		5000
Neighbor list info ...
  update every 20 steps, delay 0 steps, check no
  max neighbors/atom: 2000, page size: 100000
  master list distance cutoff = 3.3
  ghost atom cutoff = 3.3
  binsize = 1.65, bins = 10 10 10
  1 neighbor lists, perpetual/occasional/extra = 1 0 0
  (1) pair lj/cut, perpetual
      attributes: half, newton on
      pair build: half/bin/atomonly/newton
      stencil: half/bin/3d/newton
      bin: standard
Per MPI rank memory allocation (min/avg/max) = 2.695 | 2.695 | 2.695 Mbytes
Temp Press PotEng KinEng TotEng 
        0.68   -3.4474713   -8.1295091     1.019745   -7.1097641 
   0.2138748   0.13071288   -7.3832901     0.320732   -7.0625581 
  0.31524045  -0.63594799   -7.5356791   0.47274245   -7.0629367 
  0.36876142   -1.0382861   -7.6182416   0.55300384   -7.0652378 
  0.35075911  -0.91011074   -7.5914238   0.52600714   -7.0654167 
  0.34663361   -0.8751581   -7.5850659   0.51982043   -7.0652455 
  0.35022102  -0.90466616   -7.5905058   0.52520019   -7.0653056 
  0.35167968  -0.91316596   -7.5926121   0.52738764   -7.0652244 
   0.3491842  -0.89753185   -7.5889915   0.52364535   -7.0653461 
  0.34843394   -0.8848929   -7.5880621   0.52252025   -7.0655419 
   0.3575379  -0.95738062   -7.6019082   0.53617277   -7.0657354 
  0.35384684   -0.9266224   -7.5959317   0.53063756   -7.0652942 
  0.34739209  -0.87874764   -7.5863965   0.52095786   -7.0654386 
  0.34491563  -0.86006892   -7.5823067    0.5172441   -7.0650626 
  0.34853547  -0.88694034   -7.5878714    0.5226725   -7.0651989 
  0.35439237  -0.93201986   -7.5970573   0.53145566   -7.0656016 
  0.34885505  -0.89428981   -7.5886503   0.52315175   -7.0654985 
  0.35048146  -0.90358786   -7.5910556   0.52559076   -7.0654648 
  0.35076951  -0.90410479   -7.5914486   0.52602272   -7.0654259 
  0.35318285  -0.91886908   -7.5949665   0.52964184   -7.0653246 
  0.35901058  -0.96348704   -7.6042903   0.53838125   -7.0659091 
  0.34851719  -0.88317455   -7.5881805    0.5226451   -7.0655354 
  0.34906064  -0.88521813   -7.5886974   0.52346006   -7.0652373 
  0.35006318  -0.89914109   -7.5904834   0.52496349   -7.0655199 
  0.34929925  -0.89082209   -7.5893448   0.52381789   -7.0655269 
  0.34803421  -0.88239541    -7.587321    0.5219208   -7.0654002 
   0.3501001   -0.8978887   -7.5905089   0.52501887     -7.06549 
  0.34997663  -0.89921089   -7.5900205    0.5248337   -7.0651868 
  0.35420196  -0.92994385   -7.5965305   0.53117011   -7.0653604 
  0.35303434  -0.91961185   -7.5949674   0.52941912   -7.0655482 
  0.34916728  -0.88904378   -7.5889316   0.52361998   -7.0653116 
  0.35372247  -0.92646485   -7.5962187   0.53045106   -7.0657676 
  0.35069586  -0.90204481   -7.5913867   0.52591228   -7.0654744 
  0.35048093  -0.90442449   -7.5911819   0.52558997    -7.065592 
  0.34968442  -0.89412235   -7.5899638   0.52439551   -7.0655683 
  0.35528509  -0.93725881   -7.5984511    0.5327944   -7.0656567 
  0.35195836  -0.90688298   -7.5933821   0.52780556   -7.0655765 
  0.34855775  -0.88728125   -7.5881782   0.52270591   -7.0654723 
   0.3478436  -0.87957648   -7.5869376   0.52163495   -7.0653026 
  0.35384896  -0.92567504   -7.5961739   0.53064074   -7.0655332 
  0.34962609  -0.89054254   -7.5900231   0.52430802    -7.065715 
  0.35557162   -0.9370521   -7.5988694   0.53322408   -7.0656453 
  0.34943186   -0.8937817   -7.5892252   0.52401675   -7.0652084 
  0.34646594  -0.87558487   -7.5851722   0.51956899   -7.0656032 
  0.35645021  -0.94965832   -7.6001898   0.53454165   -7.0656481 
  0.34539974  -0.86640956   -7.5834527   0.51797009   -7.0654826 
  0.35351302  -0.92157814   -7.5955523   0.53013696   -7.0654153 
  0.35521001  -0.93379038   -7.5983306   0.53268181   -7.0656488 
  0.35211698  -0.91341173   -7.5934786   0.52804342   -7.0654352 
  0.35490227  -0.93795696   -7.5978932   0.53222032   -7.0656729 
  0.35167234  -0.90939587   -7.5930398   0.52737663   -7.0656631 
  0.35292314  -0.92422125   -7.5947694   0.52925237    -7.065517 
  0.34727477  -0.88341533   -7.5860327   0.52078193   -7.0652508 
  0.35319905  -0.92281632   -7.5952837   0.52966612   -7.0656176 
  0.34823753  -0.88413469    -7.587708   0.52222571   -7.0654823 
  0.35168854   -0.9091408   -7.5927869   0.52740092    -7.065386 
   0.3505781  -0.90682948   -7.5909634   0.52573568   -7.0652277 
   0.3548329  -0.93949866   -7.5975662   0.53211629   -7.0654499 
   0.3472697  -0.88237203    -7.586003   0.52077433   -7.0652287 
  0.35210857  -0.91371919   -7.5935816   0.52803082   -7.0655507 
  0.35506717  -0.94134507   -7.5981466    0.5324676    -7.065679 
  0.35341731  -0.93053376    -7.595578   0.52999343   -7.0655846 
  0.34805912  -0.88524787   -7.5873899   0.52195816   -7.0654318 
  0.34914033  -0.89094674   -7.5889229   0.52357956   -7.0653433 
  0.35249615   -0.9187012   -7.5940512   0.52861203   -7.0654391 
   0.3532333  -0.92543509   -7.5957581   0.52971749   -7.0660406 
    0.351058  -0.90773217   -7.5919902   0.52645536   -7.0655349 
  0.35067039  -0.90117651   -7.5910471   0.52587409    -7.065173 
  0.34828157  -0.88300229   -7.5875757   0.52229175   -7.0652839 
  0.35304328  -0.92103192   -7.5949362   0.52943252   -7.0655037 
  0.35374217  -0.92477696   -7.5960208    0.5304806   -7.0655402 
  0.34870013  -0.89323281   -7.5885082   0.52291944   -7.0655888 
  0.35359433  -0.91852673   -7.5957977    0.5302589   -7.0655388 
  0.35016344  -0.89889352   -7.5902776   0.52511386   -7.0651638 
  0.34597281  -0.86911989   -7.5840584   0.51882947   -7.0652289 
  0.35536779  -0.93234524   -7.5987499   0.53291842   -7.0658315 
  0.35091401  -0.90716734   -7.5917731   0.52623942   -7.0655337 
  0.35044156   -0.9006893   -7.5908017   0.52553092   -7.0652707 
   0.3539514  -0.92812662   -7.5961031   0.53079437   -7.0653087 
   0.3463919  -0.87396712   -7.5848801   0.51945795   -7.0654222 
  0.35632009  -0.94490756   -7.5999416   0.53434651   -7.0655951 
  0.34817547  -0.88414248   -7.5875189   0.52213264   -7.0653862 
    0.356883  -0.95040735   -7.6008881   0.53519067   -7.0656975 
  0.34698097  -0.87304326   -7.5854579   0.52034134   -7.0651165 
  0.35660071  -0.94639512   -7.6002247   0.53476735   -7.0654573 
  0.34911175  -0.89531679      -7.5889    0.5235367   -7.0653633 
  0.34898234  -0.89714548   -7.5884463   0.52334264   -7.0651037 
  0.35287031  -0.91716067   -7.5945931   0.52917314   -7.0654199 
  0.34844486  -0.89376841    -7.587715   0.52253662   -7.0651783 
  0.35031512  -0.90698729   -7.5907347   0.52534131   -7.0653934 
  0.35651574  -0.94618424   -7.6004385   0.53463992   -7.0657986 
  0.35233914  -0.91125622   -7.5943118   0.52837658   -7.0659352 
  0.35351764  -0.92554149   -7.5958518   0.53014389   -7.0657079 
  0.34643571  -0.87226346   -7.5846122   0.51952364   -7.0650885 
  0.35677332  -0.94820312   -7.6005221   0.53502619   -7.0654959 
  0.35021152   -0.9012925   -7.5905912   0.52518596   -7.0654053 
  0.35225893  -0.91702969   -7.5939904   0.52825631   -7.0657341 
  0.34781438  -0.88795288   -7.5870071   0.52159114    -7.065416 
  0.35538307  -0.94501297     -7.59843   0.53294134   -7.0654886 
  0.34788791  -0.87814725   -7.5870859   0.52170141   -7.0653845 
   0.3514102  -0.90837575   -7.5926148   0.52698352   -7.0656312 
Loop time of 16.018 on 8 procs for 5000 steps with 4000 atoms

Performance: 53939.318 tau/day, 312.149 timesteps/s
50.5% CPU use with 8 MPI tasks x no OpenMP threads

MPI task timing breakdown:
Section |  min time  |  avg time  |  max time  |%varavg| %total
---------------------------------------------------------------
Pair    | 3.8754     | 4.6568     | 5.0897     |  18.6 | 29.07
Neigh   | 0.40401    | 0.46001    | 0.50442    |   4.3 |  2.87
Comm    | 10.248     | 10.744     | 11.6       |  13.2 | 67.08
Output  | 0.057683   | 0.07402    | 0.098458   |   5.6 |  0.46
Modify  | 0.050312   | 0.055739   | 0.064237   |   2.0 |  0.35
Other   |            | 0.02731    |            |       |  0.17

Nlocal:    500 ave 515 max 485 min
Histogram: 1 1 1 0 1 1 0 0 2 1
Nghost:    2920.38 ave 2935 max 2908 min
Histogram: 2 0 1 1 0 0 3 0 0 1
Neighs:    36400 ave 39442 max 34602 min
Histogram: 3 0 0 1 1 1 1 0 0 1

Total # of neighbors = 291200
Ave neighs/atom = 72.8
Neighbor list builds = 250
Dangerous builds not checked
Total wall time: 0:00:16
