LAMMPS (11 Aug 2017)
# 3d Lennard-Jones melt

units		lj
atom_style	atomic
boundary p p p

variable	xx equal ${size}
variable	xx equal 10
variable	yy equal ${size}
variable	yy equal 10
variable	zz equal ${size}
variable	zz equal 10


lattice		fcc ${rho}
lattice		fcc 0.406000
Lattice spacing in x,y,z = 2.14377 2.14377 2.14377
region		box block 0 ${xx} 0 ${yy} 0 ${zz}
region		box block 0 10 0 ${yy} 0 ${zz}
region		box block 0 10 0 10 0 ${zz}
region		box block 0 10 0 10 0 10
create_box	1 box
Created orthogonal box = (0 0 0) to (21.4377 21.4377 21.4377)
  2 by 2 by 2 MPI processor grid
create_atoms	1 box
Created 4000 atoms
mass		1 1.0 #39.948

velocity	all create ${T} 1 loop geom dist uniform#create temp seed
velocity	all create 2.000000 1 loop geom dist uniform
timestep    ${dt}
timestep    0.002000

pair_style	lj/cut 3.0
pair_coeff	1 1 1.0 1.0 3.0

neighbor	0.3 bin
neigh_modify	delay 0 every 20 check no

fix	1 all nve

thermo ${Dump}
thermo 50

thermo_style custom temp press pe ke etotal

#dump dump all custom ${Dump} dump.xyz id type x y z vx vy vz
run		${Run}
run		5000
Neighbor list info ...
  update every 20 steps, delay 0 steps, check no
  max neighbors/atom: 2000, page size: 100000
  master list distance cutoff = 3.3
  ghost atom cutoff = 3.3
  binsize = 1.65, bins = 13 13 13
  1 neighbor lists, perpetual/occasional/extra = 1 0 0
  (1) pair lj/cut, perpetual
      attributes: half, newton on
      pair build: half/bin/atomonly/newton
      stencil: half/bin/3d/newton
      bin: standard
Per MPI rank memory allocation (min/avg/max) = 2.645 | 2.645 | 2.645 Mbytes
Temp Press PotEng KinEng TotEng 
           2  -0.74617702   -2.0834336      2.99925   0.91581645 
    2.163917  -0.48418289   -2.3420373     3.245064   0.90302676 
   2.0287273    1.1306367   -2.1361206    3.0423302   0.90620953 
   2.1655591    1.0351091   -2.3400379    3.2475266   0.90748869 
   2.1930374    1.0270024   -2.3810703    3.2887337   0.90766341 
   2.1931181    1.0107386   -2.3815078    3.2888547   0.90734687 
   2.2133056    0.9222282   -2.4118198    3.3191284   0.90730859 
   2.1939977   0.98721456   -2.3831323    3.2901738   0.90704153 
   2.2179081   0.90817382   -2.4190137    3.3260304   0.90701672 
   2.2014154   0.95863368   -2.3945062    3.3012975   0.90679136 
   2.1903404     1.007021    -2.377794    3.2846892   0.90689527 
   2.1879329    1.0009761   -2.3742187    3.2810789   0.90686024 
    2.198695   0.93967478    -2.390393     3.297218   0.90682504 
   2.1744782    1.0190252   -2.3542254    3.2609019   0.90667645 
   2.1981425   0.96476245   -2.3895926    3.2963894   0.90679681 
   2.2182627   0.91352732   -2.4200596    3.3265621   0.90650254 
    2.176389    1.0522457   -2.3573593    3.2637674   0.90640809 
    2.183424    1.0236981   -2.3677544    3.2743173   0.90656289 
   2.2079189   0.92219284   -2.4041944    3.3110504   0.90685599 
    2.198308   0.96775773   -2.3900569    3.2966376   0.90658067 
   2.2000043   0.96122893   -2.3926005    3.2991814   0.90658089 
   2.1938445   0.99280976   -2.3834014     3.289944   0.90654264 
   2.1928204   0.98557046   -2.3818338    3.2884084   0.90657458 
   2.2049037   0.92931519   -2.3998631    3.3065288    0.9066657 
   2.2024661   0.94231518   -2.3962409    3.3028732   0.90663226 
   2.1813927    1.0117892    -2.364599     3.271271     0.906672 
   2.2003152   0.98328034   -2.3930846    3.2996477   0.90656305 
   2.1851213    1.0407056   -2.3704258    3.2768625   0.90643673 
   2.1872696    1.0363446   -2.3737367    3.2800842   0.90634757 
   2.2033884   0.96708423   -2.3979286    3.3042563   0.90632769 
   2.1913154    1.0088136   -2.3797217    3.2861514   0.90642963 
   2.2114087   0.95849419   -2.4100493    3.3162838   0.90623451 
   2.2094213   0.95010245   -2.4069022    3.3133034   0.90640125 
   2.2096012   0.94072683   -2.4069011    3.3135732   0.90667214 
   2.1970137   0.99006553   -2.3878764    3.2946966   0.90682027 
   2.2073465   0.94838581   -2.4033897     3.310192   0.90680223 
   2.1980214   0.98605933   -2.3894608    3.2962078   0.90674704 
   2.1912817   0.99286173   -2.3793949    3.2861008   0.90670586 
   2.1934833   0.99595945   -2.3827635    3.2894024   0.90663889 
   2.1907257   0.98395458   -2.3785397     3.285267   0.90672729 
   2.1955165   0.92994233   -2.3857089    3.2924515   0.90674258 
   2.1945703   0.93277784   -2.3843352    3.2910324   0.90669726 
   2.1914805   0.98288682   -2.3797187     3.286399   0.90668028 
   2.2006548   0.98946519    -2.393541     3.300157   0.90661598 
   2.2030159   0.95931938   -2.3970832    3.3036977   0.90661444 
     2.19981   0.97461885   -2.3921963    3.2988901   0.90669374 
   2.2033819    1.0032797   -2.3976457    3.3042465   0.90660077 
    2.207772   0.99096683   -2.4044137    3.3108301   0.90641639 
   2.1740424    1.0844177   -2.3538072    3.2602483   0.90644109 
   2.2162108    0.9426861   -2.4170247    3.3234851   0.90646038 
   2.2026152   0.99595842    -2.396458    3.3030969   0.90663885 
   2.2009976    1.0216889   -2.3941794    3.3006711   0.90649173 
   2.2204001   0.97029765   -2.4233826    3.3297675   0.90638484 
    2.208787   0.99903711   -2.4060121    3.3123522   0.90634007 
    2.193056    1.0480882   -2.3825118    3.2887616   0.90624981 
   2.2065913     1.033342   -2.4029217    3.3090595   0.90613776 
   2.2209703   0.98167968    -2.424316    3.3306226    0.9063066 
   2.2211248   0.97363432   -2.4246767    3.3308543    0.9061776 
   2.2190336   0.98998123   -2.4214479    3.3277182   0.90627034 
   2.2078234    1.0032078   -2.4046806    3.3109072   0.90622665 
   2.2005593   0.98209228      -2.3938    3.3000138   0.90621378 
   2.2076679   0.97211206   -2.4044419    3.3106739     0.906232 
    2.197684      1.01423   -2.3892117    3.2957019    0.9064902 
   2.1866894    1.0683612    -2.372916    3.2792141   0.90629807 
   2.1833045    1.0758423   -2.3678232     3.274138   0.90631479 
   2.1703419    1.1352062   -2.3483236    3.2546989   0.90637536 
   2.2064902    1.0285036    -2.402203    3.3089078   0.90670482 
   2.2012325    1.0171841    -2.394405    3.3010233   0.90661835 
   2.1972669    1.0002259   -2.3885617    3.2950764    0.9065147 
   2.2137669   0.93694196   -2.4133245    3.3198202   0.90649562 
   2.2019692   0.98628843   -2.3955402    3.3021281   0.90658788 
    2.212291   0.96768415   -2.4112522    3.3176069   0.90635471 
    2.206578    1.0064338   -2.4025587    3.3090396   0.90648085 
    2.201884    1.0323404   -2.3956617    3.3020003   0.90633863 
   2.1980845    1.0280055   -2.3901063    3.2963025   0.90619615 
   2.2036945   0.99367852   -2.3981896    3.3047154   0.90652582 
   2.1995986    1.0036537   -2.3920844     3.298573   0.90648863 
    2.186512    1.0540379   -2.3726921    3.2789481   0.90625598 
   2.1934186    1.0203585   -2.3827311    3.2893054   0.90657435 
   2.2051685    1.0068614   -2.4004763    3.3069259   0.90644954 
   2.1858316     1.087255   -2.3712998    3.2779277   0.90662793 
   2.1986935    1.0402055   -2.3909178    3.2972158   0.90629799 
   2.2174859   0.96121742   -2.4191263    3.3253973   0.90627096 
   2.2092521   0.96930639   -2.4064222    3.3130497   0.90662748 
   2.2058533   0.97492961    -2.401204    3.3079527   0.90674867 
   2.1901146    1.0161497   -2.3781399    3.2843506    0.9062107 
   2.1990359   0.97793911   -2.3912537    3.2977293   0.90647559 
   2.1992201   0.95910261   -2.3914378    3.2980054   0.90656758 
   2.1918181    1.0024634   -2.3801691    3.2869052   0.90673614 
   2.2060333   0.97170459   -2.4018625    3.3082226    0.9063601 
   2.2180328   0.97696977   -2.4197451    3.3262174   0.90647225 
   2.2257492   0.99128884   -2.4313515    3.3377892   0.90643767 
   2.1924043    1.0793055   -2.3813639    3.2877842   0.90642028 
   2.2058564   0.99824458   -2.4017278    3.3079574   0.90622956 
   2.2061507     1.000146   -2.4019427    3.3083987   0.90645597 
   2.2044962    1.0132883   -2.3995344    3.3059176   0.90638315 
   2.2122855   0.98142733   -2.4110731    3.3175987   0.90652557 
   2.2031303    1.0041331   -2.3974028    3.3038693   0.90646646 
   2.2033531   0.99298477   -2.3975917    3.3042033   0.90661169 
   2.1972548    1.0000833   -2.3884421    3.2950582   0.90661604 
   2.2141415   0.94868313   -2.4138115     3.320382   0.90657051 
Loop time of 6.49943 on 8 procs for 5000 steps with 4000 atoms

Performance: 132934.679 tau/day, 769.298 timesteps/s
52.4% CPU use with 8 MPI tasks x no OpenMP threads

MPI task timing breakdown:
Section |  min time  |  avg time  |  max time  |%varavg| %total
---------------------------------------------------------------
Pair    | 1.6696     | 1.9269     | 2.2725     |  14.5 | 29.65
Neigh   | 0.21675    | 0.25305    | 0.29299    |   5.1 |  3.89
Comm    | 3.8639     | 4.2305     | 4.5324     |  10.9 | 65.09
Output  | 0.0093524  | 0.02418    | 0.037512   |   6.0 |  0.37
Modify  | 0.042949   | 0.050501   | 0.067149   |   3.2 |  0.78
Other   |            | 0.01429    |            |       |  0.22

Nlocal:    500 ave 527 max 478 min
Histogram: 1 1 0 2 1 1 0 0 1 1
Nghost:    1606.38 ave 1637 max 1584 min
Histogram: 2 0 1 1 1 0 2 0 0 1
Neighs:    15139.9 ave 16378 max 14050 min
Histogram: 2 0 0 1 2 0 1 0 1 1

Total # of neighbors = 121119
Ave neighs/atom = 30.2797
Neighbor list builds = 250
Dangerous builds not checked
Total wall time: 0:00:06
