LAMMPS (11 Aug 2017)
# 3d Lennard-Jones melt

units		lj
atom_style	atomic
boundary p p p

variable	xx equal ${size}
variable	xx equal 10
variable	yy equal ${size}
variable	yy equal 10
variable	zz equal ${size}
variable	zz equal 10


lattice		fcc ${rho}
lattice		fcc 0.485200
Lattice spacing in x,y,z = 2.02013 2.02013 2.02013
region		box block 0 ${xx} 0 ${yy} 0 ${zz}
region		box block 0 10 0 ${yy} 0 ${zz}
region		box block 0 10 0 10 0 ${zz}
region		box block 0 10 0 10 0 10
create_box	1 box
Created orthogonal box = (0 0 0) to (20.2013 20.2013 20.2013)
  2 by 2 by 2 MPI processor grid
create_atoms	1 box
Created 4000 atoms
mass		1 1.0 #39.948

velocity	all create ${T} 1 loop geom dist uniform#create temp seed
velocity	all create 1.520000 1 loop geom dist uniform
timestep    ${dt}
timestep    0.002000

pair_style	lj/cut 3.0
pair_coeff	1 1 1.0 1.0 3.0

neighbor	0.3 bin
neigh_modify	delay 0 every 20 check no

fix	1 all nve

thermo ${Dump}
thermo 50

thermo_style custom temp press pe ke etotal

#dump dump all custom ${Dump} dump.xyz id type x y z vx vy vz
run		${Run}
run		5000
Neighbor list info ...
  update every 20 steps, delay 0 steps, check no
  max neighbors/atom: 2000, page size: 100000
  master list distance cutoff = 3.3
  ghost atom cutoff = 3.3
  binsize = 1.65, bins = 13 13 13
  1 neighbor lists, perpetual/occasional/extra = 1 0 0
  (1) pair lj/cut, perpetual
      attributes: half, newton on
      pair build: half/bin/atomonly/newton
      stencil: half/bin/3d/newton
      bin: standard
Per MPI rank memory allocation (min/avg/max) = 2.645 | 2.645 | 2.645 Mbytes
Temp Press PotEng KinEng TotEng 
        1.52    -1.768978   -2.9188711      2.27943  -0.63944106 
   1.6130518   -1.1507897   -3.0597624    2.4189727   -0.6407897 
   1.4701415   0.66535836   -2.8458421    2.2046609   -0.6411812 
   1.5411024   0.70060887   -2.9509191    2.3110756  -0.63984352 
   1.5800997   0.63349921   -3.0089627    2.3695571  -0.63940566 
   1.5914091   0.59370248   -3.0260459    2.3865169  -0.63952897 
   1.5841008   0.63719498   -3.0153115    2.3755572  -0.63975426 
   1.5821562   0.65088673   -3.0123879    2.3726411  -0.63974681 
   1.5837852   0.63292782   -3.0150289    2.3750838  -0.63994505 
   1.5983662   0.59999131   -3.0368739    2.3969499  -0.63992402 
   1.5974582   0.62366077   -3.0356359    2.3955883  -0.64004757 
   1.6065721   0.57515168   -3.0493089    2.4092557  -0.64005317 
   1.5893348    0.6426773   -3.0235825    2.3834062  -0.64017636 
   1.5867221    0.6678525   -3.0198025    2.3794881   -0.6403144 
   1.6056271   0.59669914   -3.0480184    2.4078385  -0.64017991 
   1.5943397   0.64972493   -3.0309644    2.3909116  -0.64005277 
   1.6004159    0.6273945   -3.0400828    2.4000237  -0.64005914 
   1.5991713   0.61506159   -3.0381675    2.3981572  -0.64001029 
   1.5940784   0.60483843   -3.0305751    2.3905199  -0.64005529 
   1.6029775   0.58568128   -3.0440837    2.4038651  -0.64021855 
   1.6001458   0.62263583   -3.0397043    2.3996186  -0.64008569 
   1.5998814   0.63583707   -3.0391562    2.3992222  -0.63993402 
   1.6017925   0.65093106   -3.0421167    2.4020881  -0.64002861 
   1.5939142   0.67596815   -3.0303069    2.3902737   -0.6400332 
   1.5978615     0.639397   -3.0363117    2.3961931  -0.64011858 
    1.613375    0.5906099   -3.0593747    2.4194574  -0.63991723 
   1.5907519   0.68485187   -3.0254927    2.3855313   -0.6399614 
   1.6054197   0.57657406   -3.0475338    2.4075275  -0.64000624 
   1.6018589   0.58297545   -3.0421023    2.4021877  -0.63991459 
   1.5792341   0.69433953   -3.0083726    2.3682589  -0.64011368 
   1.6049183     0.601892   -3.0471177    2.4067756  -0.64034219 
   1.6117062   0.55587104   -3.0572949    2.4169549     -0.64034 
   1.6018508   0.60881376   -3.0421727    2.4021755  -0.63999728 
   1.5998492   0.67320092   -3.0391492    2.3991739  -0.63997531 
   1.6029904   0.65772026   -3.0439306    2.4038845  -0.64004602 
   1.6101044    0.5998942   -3.0545764    2.4145528  -0.64002363 
   1.6018741   0.60720814   -3.0422377    2.4022104   -0.6400273 
    1.586979   0.65961491    -3.019891    2.3798734  -0.64001759 
   1.5886006   0.67419416   -3.0221601    2.3823052  -0.63985483 
   1.5990606   0.63273527   -3.0379964    2.3979913  -0.64000513 
   1.6030266   0.62178327   -3.0438681    2.4039388  -0.63992931 
   1.5957232   0.65516811   -3.0332733    2.3929865  -0.64028679 
    1.601834   0.63378129   -3.0422732    2.4021504  -0.64012281 
   1.6067588   0.63303611   -3.0497268    2.4095357  -0.64019111 
   1.5783418   0.74366352   -3.0069346    2.3669209  -0.64001366 
    1.609925   0.61604815   -3.0543338    2.4142837  -0.64005011 
   1.5973036    0.6555464   -3.0352994    2.3953565  -0.63994289 
   1.6005886   0.62191682    -3.040343    2.4002827  -0.64006035 
   1.5942662   0.63313272   -3.0308529    2.3908014  -0.64005149 
   1.6102248   0.59983147   -3.0547245    2.4147334   -0.6399911 
   1.6046821   0.62029958   -3.0462007    2.4064214  -0.63977923 
     1.58582   0.70697998   -3.0178292    2.3781354  -0.63969384 
   1.5856181   0.70958477   -3.0178425    2.3778325  -0.64000999 
   1.5872387   0.71116967   -3.0202345    2.3802628  -0.63997165 
   1.5968076    0.6812165   -3.0346184    2.3946125  -0.64000584 
   1.5801089   0.73161677   -3.0093672    2.3695708  -0.63979635 
   1.6053902   0.59411241   -3.0474951    2.4074833  -0.64001178 
   1.5947144    0.6344071   -3.0316507    2.3914736  -0.64017716 
   1.5989669    0.6184368   -3.0380419    2.3978507  -0.64019124 
   1.5837174   0.67170987   -3.0151219    2.3749821  -0.64013975 
   1.5785985   0.68369196   -3.0073554    2.3673057   -0.6400497 
   1.6178513   0.52631733   -3.0663923    2.4261703  -0.64022199 
   1.5822548   0.67936212   -3.0128109    2.3727889  -0.64002201 
   1.6143199   0.60715756   -3.0609803    2.4208744  -0.64010582 
   1.6042668   0.71823466   -3.0461424    2.4057987  -0.64034373 
   1.5821374   0.81914331   -3.0128501    2.3726127  -0.64023742 
   1.6127819   0.67452739   -3.0588866     2.418568  -0.64031863 
   1.6099369   0.65303822   -3.0545768    2.4143016  -0.64027521 
   1.5839051   0.70912293   -3.0155694    2.3752637   -0.6403057 
   1.6014057   0.60700795   -3.0417482     2.401508  -0.64024014 
   1.5909973   0.65956145   -3.0260161    2.3858993  -0.64011687 
   1.6009554   0.66269417    -3.041002    2.4008328  -0.64016924 
   1.6092745   0.65253622   -3.0535098    2.4133082  -0.64020153 
   1.6004086   0.70545184   -3.0402073    2.4000128  -0.64019455 
   1.5988289   0.75325252    -3.037921    2.3976439  -0.64027711 
    1.599394   0.71959702   -3.0385893    2.3984912  -0.64009806 
   1.6216892   0.57655644   -3.0722644    2.4319257  -0.64033876 
   1.6064291   0.61929014   -3.0493204    2.4090412  -0.64027917 
   1.5928472   0.66316627   -3.0289887    2.3886735  -0.64031524 
   1.5925958   0.67497741   -3.0285445    2.3882965  -0.64024797 
   1.6031227    0.6218242   -3.0444721    2.4040829  -0.64038915 
   1.5967598   0.65604885   -3.0346402     2.394541  -0.64009921 
   1.6047777   0.64794997   -3.0465562    2.4065648   -0.6399914 
   1.6082572   0.63778833   -3.0518476    2.4117827  -0.64006498 
   1.6078151   0.63291539   -3.0512532    2.4111197  -0.64013357 
   1.5934647   0.68057738   -3.0296617    2.3895995  -0.64006218 
   1.5971885   0.68485243   -3.0352333    2.3951838  -0.64004951 
   1.6115308   0.65969234   -3.0568596    2.4166918  -0.64016776 
   1.6088956   0.66552937   -3.0528932    2.4127401  -0.64015312 
   1.6043019   0.67691284    -3.046362    2.4058513  -0.64051072 
    1.592277   0.71544852   -3.0281319    2.3878184  -0.64031343 
   1.6026155   0.64481563    -3.043683    2.4033223  -0.64036066 
   1.6023256   0.63611266   -3.0434419    2.4028875  -0.64055437 
    1.582301    0.7062435   -3.0133007    2.3728581  -0.64044258 
   1.5902236   0.68401062    -3.025339     2.384739  -0.64059992 
   1.5934785    0.6733915   -3.0301147    2.3896203  -0.64049443 
   1.6072584   0.58602771   -3.0507029    2.4102849  -0.64041803 
   1.6161044   0.53852942   -3.0638715    2.4235505  -0.64032098 
   1.5943781   0.63356007   -3.0314142    2.3909692  -0.64044505 
   1.5963293   0.64312988    -3.034259    2.3938953  -0.64036365 
   1.6006038    0.6437375   -3.0404451    2.4003054  -0.64013972 
Loop time of 6.31316 on 8 procs for 5000 steps with 4000 atoms

Performance: 136856.961 tau/day, 791.996 timesteps/s
56.5% CPU use with 8 MPI tasks x no OpenMP threads

MPI task timing breakdown:
Section |  min time  |  avg time  |  max time  |%varavg| %total
---------------------------------------------------------------
Pair    | 1.9302     | 2.1993     | 2.4508     |  10.8 | 34.84
Neigh   | 0.23645    | 0.25462    | 0.2905     |   3.4 |  4.03
Comm    | 3.5001     | 3.7836     | 4.0807     |   9.2 | 59.93
Output  | 0.0078948  | 0.013502   | 0.023561   |   4.4 |  0.21
Modify  | 0.042103   | 0.046593   | 0.051768   |   1.6 |  0.74
Other   |            | 0.01556    |            |       |  0.25

Nlocal:    500 ave 525 max 474 min
Histogram: 2 0 0 0 1 1 2 1 0 1
Nghost:    1749.5 ave 1775 max 1725 min
Histogram: 1 0 2 0 2 0 1 0 1 1
Neighs:    18179.1 ave 19783 max 16845 min
Histogram: 2 0 0 0 2 2 1 0 0 1

Total # of neighbors = 145433
Ave neighs/atom = 36.3582
Neighbor list builds = 250
Dangerous builds not checked
Total wall time: 0:00:06
