LAMMPS (11 Aug 2017)
# 3d Lennard-Jones melt

units		lj
atom_style	atomic
boundary p p p

variable	xx equal ${size}
variable	xx equal 10
variable	yy equal ${size}
variable	yy equal 10
variable	zz equal ${size}
variable	zz equal 10


lattice		fcc ${rho}
lattice		fcc 0.247600
Lattice spacing in x,y,z = 2.52796 2.52796 2.52796
region		box block 0 ${xx} 0 ${yy} 0 ${zz}
region		box block 0 10 0 ${yy} 0 ${zz}
region		box block 0 10 0 10 0 ${zz}
region		box block 0 10 0 10 0 10
create_box	1 box
Created orthogonal box = (0 0 0) to (25.2796 25.2796 25.2796)
  2 by 2 by 2 MPI processor grid
create_atoms	1 box
Created 4000 atoms
mass		1 1.0 #39.948

velocity	all create ${T} 1 loop geom dist uniform#create temp seed
velocity	all create 1.940000 1 loop geom dist uniform
timestep    ${dt}
timestep    0.002000

pair_style	lj/cut 3.0
pair_coeff	1 1 1.0 1.0 3.0

neighbor	0.3 bin
neigh_modify	delay 0 every 20 check no

fix	1 all nve

thermo ${Dump}
thermo 50

thermo_style custom temp press pe ke etotal

#dump dump all custom ${Dump} dump.xyz id type x y z vx vy vz
run		${Run}
run		5000
Neighbor list info ...
  update every 20 steps, delay 0 steps, check no
  max neighbors/atom: 2000, page size: 100000
  master list distance cutoff = 3.3
  ghost atom cutoff = 3.3
  binsize = 1.65, bins = 16 16 16
  1 neighbor lists, perpetual/occasional/extra = 1 0 0
  (1) pair lj/cut, perpetual
      attributes: half, newton on
      pair build: half/bin/atomonly/newton
      stencil: half/bin/3d/newton
      bin: standard
Per MPI rank memory allocation (min/avg/max) = 2.61 | 2.61 | 2.61 Mbytes
Temp Press PotEng KinEng TotEng 
        1.94   0.11565998  -0.75892189    2.9092725    2.1503506 
   2.0350298  0.076328892  -0.92095141    3.0517815    2.1308301 
   2.0726224   0.54908768  -0.98088007    3.1081564    2.1272763 
   2.2363522   0.63739242   -1.2277018    3.3536896    2.1259879 
   2.3217435   0.60942364   -1.3561399    3.4817445    2.1256047 
   2.3413547   0.60930795   -1.3857639     3.511154    2.1253901 
    2.347908   0.59498151   -1.3959166    3.5209816    2.1250649 
   2.3421484   0.59099118   -1.3873983    3.5123443     2.124946 
   2.3371006   0.59316008   -1.3802579    3.5047745    2.1245166 
   2.3473228   0.57359263   -1.3956598     3.520104    2.1244443 
   2.3445435   0.59156603   -1.3914457     3.515936    2.1244903 
   2.3375001   0.60934637   -1.3806871    3.5053735    2.1246864 
   2.3475617    0.5793024   -1.3958183    3.5204622    2.1246439 
   2.3483509   0.58077717   -1.3971957    3.5216458    2.1244501 
   2.3562777   0.58349923   -1.4091586     3.533533    2.1243744 
   2.3699532   0.56957937   -1.4297804    3.5540411    2.1242607 
   2.3692263   0.57605631   -1.4287485    3.5529509    2.1242024 
   2.3721562   0.57254174   -1.4334084    3.5573448    2.1239364 
   2.3727927   0.58328933   -1.4342657    3.5582992    2.1240335 
   2.3689552   0.59364512   -1.4288851    3.5525445    2.1236594 
   2.3791095   0.59205102   -1.4442497    3.5677721    2.1235225 
   2.3807476   0.58629311   -1.4466654    3.5702286    2.1235633 
   2.3814635   0.58682519   -1.4476313    3.5713022    2.1236709 
    2.388185   0.57700923   -1.4578564    3.5813819    2.1235254 
   2.3773965   0.61122104   -1.4416992    3.5652032     2.123504 
   2.3801911   0.59740295   -1.4458331    3.5693941     2.123561 
   2.3834208   0.58716828   -1.4508574    3.5742374    2.1233801 
   2.3870766   0.58024933   -1.4562321    3.5797197    2.1234877 
   2.3843548   0.58893559   -1.4521647    3.5756381    2.1234734 
   2.3787611   0.59376265   -1.4436067    3.5672497     2.123643 
     2.38108   0.56912255   -1.4470339     3.570727    2.1236932 
   2.3773075   0.58445782   -1.4416023    3.5650698    2.1234674 
    2.382452   0.58389586   -1.4493235    3.5727845     2.123461 
   2.3791367   0.58733747   -1.4443576    3.5678128    2.1234553 
     2.38228   0.58765584   -1.4490793    3.5725266    2.1234473 
   2.3731635   0.59709834   -1.4353821    3.5588553    2.1234732 
   2.3919046   0.55914462   -1.4636375      3.58696    2.1233225 
   2.3750129   0.59769648   -1.4383543    3.5616288    2.1232745 
   2.3889283   0.56577984   -1.4592162    3.5824965    2.1232803 
   2.3915953   0.57266802   -1.4629727    3.5864961    2.1235233 
   2.3856573   0.59046994   -1.4540574    3.5775913     2.123534 
   2.3852874   0.59403381   -1.4535103    3.5770366    2.1235263 
   2.3909545   0.57979408   -1.4620629    3.5855352    2.1234723 
   2.3813092   0.58997884   -1.4475392    3.5710709    2.1235316 
   2.3752167   0.59906159   -1.4384805    3.5619343    2.1234538 
   2.3917549   0.58552998   -1.4634277    3.5867355    2.1233078 
   2.3848001   0.62289472   -1.4528727    3.5763058    2.1234331 
   2.4045047   0.58049655   -1.4823438    3.6058553    2.1235115 
   2.3938999   0.60139987   -1.4664932    3.5899521    2.1234589 
   2.3821175   0.61498624    -1.448897     3.572283    2.1233859 
   2.3854433   0.59395021    -1.453873    3.5772705    2.1233974 
   2.3925711   0.57581432    -1.464651    3.5879594    2.1233084 
   2.3860416   0.58896291   -1.4548688    3.5781676    2.1232988 
   2.3844855   0.58101252   -1.4525929     3.575834    2.1232411 
   2.3825128    0.5755547   -1.4496934    3.5728758    2.1231823 
   2.3893429   0.58400919   -1.4597183    3.5831183    2.1233999 
   2.3888572   0.60637822   -1.4588626      3.58239    2.1235274 
   2.3927335   0.59209629   -1.4647198    3.5882029    2.1234832 
   2.3774244   0.61511443   -1.4416967    3.5652451    2.1235484 
   2.3903934   0.57685129   -1.4612533    3.5846937    2.1234404 
   2.3926297   0.56534463   -1.4645374    3.5880473    2.1235099 
   2.3840288   0.58685939   -1.4515348    3.5751492    2.1236144 
      2.3794   0.59912397   -1.4445671    3.5682078    2.1236407 
   2.3790433   0.57991977   -1.4441789    3.5676728    2.1234938 
    2.381639   0.56751695   -1.4481984    3.5715654     2.123367 
   2.3893301   0.56449984   -1.4596189    3.5830992    2.1234803 
   2.3777707   0.60255734   -1.4424032    3.5657644    2.1233611 
   2.3788501   0.60104563    -1.443932    3.5673832    2.1234511 
   2.3738503   0.59078153   -1.4363195    3.5598853    2.1235658 
   2.3805276   0.57006472   -1.4462776    3.5698987    2.1236211 
   2.3686857    0.6005179   -1.4283171    3.5521402    2.1238232 
   2.3900147   0.56110755   -1.4605501    3.5841258    2.1235757 
   2.3785069   0.58303193    -1.443218    3.5668684    2.1236503 
   2.3824761   0.60247276   -1.4490748    3.5728207     2.123746 
   2.3750538   0.63782408   -1.4381696    3.5616901    2.1235205 
   2.3878707   0.60616184   -1.4575514    3.5809106    2.1233592 
    2.376969   0.61265632   -1.4411081    3.5645621    2.1234539 
   2.3828723   0.57580192   -1.4497314    3.5734148    2.1236835 
   2.3747159    0.5944041   -1.4375078    3.5611833    2.1236755 
   2.4017225   0.53574254   -1.4783263    3.6016831    2.1233568 
   2.3804875   0.56779999   -1.4467005    3.5698386    2.1231381 
   2.3769075   0.58004829   -1.4413225      3.56447    2.1231474 
   2.3726946   0.60155212   -1.4349907    3.5581521    2.1231615 
   2.3899883   0.56379546   -1.4610296    3.5840862    2.1230567 
   2.3786491   0.58144826   -1.4441303    3.5670817    2.1229514 
   2.3962888   0.56656642   -1.4704336    3.5935347    2.1231011 
   2.3878628   0.60239291   -1.4577035    3.5808987    2.1231952 
   2.3925986   0.60142136   -1.4650192    3.5880006    2.1229814 
   2.3837429   0.60650533   -1.4517633    3.5747205    2.1229572 
   2.3916563   0.57997855   -1.4635731    3.5865876    2.1230145 
   2.3822196    0.6016415   -1.4493471     3.572436    2.1230889 
   2.3883363   0.58416098   -1.4586681    3.5816089    2.1229408 
   2.3861104   0.58966538   -1.4550413    3.5782707    2.1232295 
   2.3897065   0.59948973   -1.4605603    3.5836636    2.1231033 
   2.3917123   0.58914341    -1.463524    3.5866716    2.1231475 
   2.3915511   0.56986356   -1.4632101    3.5864299    2.1232198 
   2.3711335    0.5891125   -1.4324446    3.5558111    2.1233665 
    2.378677   0.57509278   -1.4437722    3.5671234    2.1233512 
   2.3810426   0.58427667   -1.4471228     3.570671    2.1235482 
   2.3852164   0.57630531   -1.4532911    3.5769302    2.1236391 
   2.3845815   0.57176305   -1.4525847     3.575978    2.1233934 
Loop time of 3.37199 on 8 procs for 5000 steps with 4000 atoms

Performance: 256228.389 tau/day, 1482.803 timesteps/s
57.7% CPU use with 8 MPI tasks x no OpenMP threads

MPI task timing breakdown:
Section |  min time  |  avg time  |  max time  |%varavg| %total
---------------------------------------------------------------
Pair    | 1.0001     | 1.0715     | 1.1489     |   4.5 | 31.78
Neigh   | 0.15881    | 0.17041    | 0.18644    |   2.0 |  5.05
Comm    | 1.9856     | 2.0704     | 2.156      |   3.9 | 61.40
Output  | 0.0043931  | 0.0066049  | 0.010826   |   2.5 |  0.20
Modify  | 0.040267   | 0.041862   | 0.047007   |   1.0 |  1.24
Other   |            | 0.01122    |            |       |  0.33

Nlocal:    500 ave 540 max 474 min
Histogram: 1 1 1 2 0 2 0 0 0 1
Nghost:    1244 ave 1280 max 1220 min
Histogram: 2 1 0 0 3 0 0 1 0 1
Neighs:    9244.38 ave 10174 max 8397 min
Histogram: 1 0 1 0 2 3 0 0 0 1

Total # of neighbors = 73955
Ave neighs/atom = 18.4887
Neighbor list builds = 250
Dangerous builds not checked
Total wall time: 0:00:03
