LAMMPS (11 Aug 2017)
# 3d Lennard-Jones melt

units		lj
atom_style	atomic
boundary p p p

variable	xx equal ${size}
variable	xx equal 10
variable	yy equal ${size}
variable	yy equal 10
variable	zz equal ${size}
variable	zz equal 10


lattice		fcc ${rho}
lattice		fcc 0.584200
Lattice spacing in x,y,z = 1.89889 1.89889 1.89889
region		box block 0 ${xx} 0 ${yy} 0 ${zz}
region		box block 0 10 0 ${yy} 0 ${zz}
region		box block 0 10 0 10 0 ${zz}
region		box block 0 10 0 10 0 10
create_box	1 box
Created orthogonal box = (0 0 0) to (18.9889 18.9889 18.9889)
  2 by 2 by 2 MPI processor grid
create_atoms	1 box
Created 4000 atoms
mass		1 1.0 #39.948

velocity	all create ${T} 1 loop geom dist uniform#create temp seed
velocity	all create 1.760000 1 loop geom dist uniform
timestep    ${dt}
timestep    0.002000

pair_style	lj/cut 3.0
pair_coeff	1 1 1.0 1.0 3.0

neighbor	0.3 bin
neigh_modify	delay 0 every 20 check no

fix	1 all nve

thermo ${Dump}
thermo 50

thermo_style custom temp press pe ke etotal

#dump dump all custom ${Dump} dump.xyz id type x y z vx vy vz
run		${Run}
run		5000
Neighbor list info ...
  update every 20 steps, delay 0 steps, check no
  max neighbors/atom: 2000, page size: 100000
  master list distance cutoff = 3.3
  ghost atom cutoff = 3.3
  binsize = 1.65, bins = 12 12 12
  1 neighbor lists, perpetual/occasional/extra = 1 0 0
  (1) pair lj/cut, perpetual
      attributes: half, newton on
      pair build: half/bin/atomonly/newton
      stencil: half/bin/3d/newton
      bin: standard
Per MPI rank memory allocation (min/avg/max) = 2.645 | 2.645 | 2.645 Mbytes
Temp Press PotEng KinEng TotEng 
        1.76   -2.8347535   -4.0123837      2.63934   -1.3730437 
   1.4946213  -0.26246335   -3.6452002    2.2413715   -1.4038287 
   1.4800982   0.87000206   -3.6231892    2.2195923   -1.4035969 
   1.4947249   0.92257333   -3.6450118    2.2415268    -1.403485 
   1.5045346   0.90848085   -3.6599281    2.2562378   -1.4036903 
   1.5169004     0.869672   -3.6784894    2.2747817   -1.4037078 
   1.5067854   0.93743353   -3.6632894    2.2596131   -1.4036763 
   1.5123224   0.96783374   -3.6716975    2.2679165    -1.403781 
   1.5243869   0.90151624   -3.6898715    2.2860087   -1.4038627 
   1.4949985   0.99072392   -3.6458604    2.2419372   -1.4039232 
   1.5131127   0.87594201   -3.6728824    2.2691017   -1.4037807 
    1.495819   0.94863592   -3.6467464    2.2431676   -1.4035788 
   1.4936543   0.98414392   -3.6436082    2.2399214   -1.4036869 
   1.5157396   0.89279853   -3.6765456     2.273041   -1.4035045 
   1.5111284   0.92022573   -3.6696491    2.2661259   -1.4035231 
    1.504343   0.96330169   -3.6594338    2.2559503   -1.4034834 
   1.5191668   0.89627837    -3.681822    2.2781805   -1.4036415 
   1.5200726   0.86421082   -3.6831905    2.2795389   -1.4036517 
   1.5188814   0.86237088   -3.6814954    2.2777526   -1.4037428 
   1.5105661    0.9458807   -3.6689531    2.2652826   -1.4036704 
   1.5321207   0.85491401   -3.7012449    2.2976065   -1.4036384 
   1.5039151   0.96387913   -3.6590478    2.2553086   -1.4037392 
   1.5229828   0.87688464   -3.6875477    2.2839031   -1.4036446 
   1.5136007   0.90694189   -3.6737237    2.2698335   -1.4038902 
   1.5075095   0.96549323   -3.6645708    2.2606989   -1.4038719 
   1.5173975   0.90793353   -3.6795419    2.2755272   -1.4040147 
   1.5096687   0.91030979   -3.6676527    2.2639369   -1.4037158 
   1.5103351   0.89892358   -3.6687884    2.2649363   -1.4038521 
    1.516153   0.89141217   -3.6770986     2.273661   -1.4034376 
   1.5028302   0.97440758   -3.6572418    2.2536817   -1.4035601 
   1.5120617   0.89083423   -3.6710168    2.2675255   -1.4034913 
   1.5254942   0.82170879   -3.6915379    2.2876692   -1.4038687 
   1.4967996   0.98965467   -3.6483088    2.2446381   -1.4036708 
   1.5027495   0.92984621   -3.6573925    2.2535608   -1.4038318 
   1.4948071   0.98743795   -3.6452881    2.2416501    -1.403638 
   1.5108301   0.95848985   -3.6693088    2.2656786   -1.4036302 
   1.5177511   0.93602706   -3.6798592    2.2760574   -1.4038018 
    1.489835    1.0579594   -3.6379161    2.2341938   -1.4037223 
   1.5188268    0.9104004   -3.6813327    2.2776706   -1.4036621 
   1.4916003    1.0104802   -3.6402561     2.236841    -1.403415 
   1.4897413    0.9890944   -3.6376324    2.2340534   -1.4035791 
   1.4899309   0.96891583   -3.6380004    2.2343377   -1.4036628 
   1.5207661   0.83519828   -3.6842893    2.2805789   -1.4037104 
   1.5082491   0.90236819   -3.6654513    2.2618081   -1.4036431 
   1.5127315   0.91336499   -3.6723678      2.26853   -1.4038378 
   1.5075776    0.9479743   -3.6646059     2.260801   -1.4038048 
   1.5142172   0.93048608   -3.6745627     2.270758   -1.4038046 
   1.5065571   0.92378483   -3.6630283    2.2592707   -1.4037576 
   1.5292566   0.80991888   -3.6967811    2.2933114   -1.4034697 
   1.5158661   0.89482188   -3.6767043    2.2732308   -1.4034735 
   1.5187792   0.88213566   -3.6812454    2.2775993    -1.403646 
   1.5056122   0.93958977   -3.6617388    2.2578537   -1.4038851 
   1.5061033    0.9764307   -3.6624024    2.2585902   -1.4038123 
   1.5102506   0.96761048   -3.6688063    2.2648096   -1.4039967 
   1.5100417   0.97037828   -3.6684734    2.2644963   -1.4039771 
   1.5139073   0.93003691   -3.6740441    2.2702932   -1.4037509 
   1.5248032   0.90336045   -3.6904527     2.286633   -1.4038197 
   1.5113969   0.98924382   -3.6701547    2.2665285   -1.4036262 
   1.5249694   0.89378977   -3.6906938    2.2868823   -1.4038115 
   1.5275266   0.88656355   -3.6943453    2.2907171   -1.4036283 
   1.5176205   0.96080523   -3.6795564    2.2758616   -1.4036948 
   1.5293121   0.89940764   -3.6967912    2.2933946   -1.4033966 
   1.5179486   0.92724967    -3.679913    2.2763537   -1.4035594 
   1.4953873    1.0172615   -3.6462457    2.2425202   -1.4037255 
   1.5061806   0.96634004   -3.6623862     2.258706   -1.4036802 
    1.506876   0.95231204   -3.6632788    2.2597489   -1.4035298 
   1.5207307   0.85952786   -3.6839286    2.2805258   -1.4034029 
    1.510684   0.89614989   -3.6687525    2.2654595    -1.403293 
   1.5249276   0.85158385   -3.6903999    2.2868195   -1.4035804 
   1.5060819   0.98133217   -3.6622609     2.258558   -1.4037029 
   1.5036886   0.99510542   -3.6585126     2.254969   -1.4035436 
   1.5022725   0.97309031    -3.656574    2.2528453   -1.4037286 
   1.5161048   0.88644582    -3.677305    2.2735887   -1.4037163 
   1.5076358    0.9119582   -3.6644765    2.2608883   -1.4035882 
   1.5160113   0.86973941   -3.6771142    2.2734484   -1.4036658 
   1.5242195   0.85057625   -3.6895096    2.2857577   -1.4037519 
   1.5190192   0.86466959   -3.6816485    2.2779592   -1.4036893 
   1.5062297   0.91534146   -3.6626101    2.2587796   -1.4038304 
   1.5144544   0.90034027   -3.6748263    2.2711137   -1.4037126 
   1.5103083    0.9314952   -3.6683786    2.2648961   -1.4034825 
   1.5199124   0.88357928   -3.6829238    2.2792986   -1.4036252 
   1.5095463   0.91750085   -3.6673366    2.2637534   -1.4035832 
   1.5350203   0.81182993     -3.70567    2.3019548   -1.4037153 
   1.5102531   0.92267571   -3.6682566    2.2648132   -1.4034434 
   1.5108555   0.95124144   -3.6691715    2.2657167   -1.4034548 
   1.5212301   0.88532182   -3.6848711    2.2812747   -1.4035963 
   1.5167232   0.91898573   -3.6781702    2.2745161   -1.4036541 
   1.5084401   0.93217965   -3.6658416    2.2620945   -1.4037472 
   1.5131955   0.89040053   -3.6728541    2.2692258   -1.4036282 
    1.519726    0.9094325   -3.6825033    2.2790192   -1.4034841 
   1.4989698    0.9859624   -3.6514848    2.2478926   -1.4035921 
   1.5121087     0.881833   -3.6712997     2.267596   -1.4037037 
   1.5098527   0.91984981   -3.6677458    2.2642129   -1.4035329 
   1.5063899   0.93855779   -3.6627074      2.25902   -1.4036875 
   1.5079312   0.95524831   -3.6652204    2.2613313   -1.4038891 
   1.5115778   0.93563547   -3.6707285    2.2667998   -1.4039287 
   1.5156765    0.9076296   -3.6767752    2.2729464   -1.4038288 
   1.5219499   0.89256235   -3.6861798    2.2823541   -1.4038256 
   1.5022061   0.98030309   -3.6565605    2.2527458   -1.4038147 
   1.5125065   0.92051822   -3.6718501    2.2681926   -1.4036575 
    1.509131   0.91484758   -3.6668776    2.2631306   -1.4037469 
Loop time of 4.37706 on 8 procs for 5000 steps with 4000 atoms

Performance: 197392.933 tau/day, 1142.320 timesteps/s
78.7% CPU use with 8 MPI tasks x no OpenMP threads

MPI task timing breakdown:
Section |  min time  |  avg time  |  max time  |%varavg| %total
---------------------------------------------------------------
Pair    | 2.2759     | 2.4583     | 2.5464     |   5.1 | 56.16
Neigh   | 0.25693    | 0.27233    | 0.28341    |   1.6 |  6.22
Comm    | 1.4946     | 1.5859     | 1.781      |   6.7 | 36.23
Output  | 0.0028794  | 0.004222   | 0.0090053  |   2.8 |  0.10
Modify  | 0.040041   | 0.041997   | 0.044509   |   0.6 |  0.96
Other   |            | 0.01425    |            |       |  0.33

Nlocal:    500 ave 509 max 489 min
Histogram: 1 0 0 2 0 2 0 1 0 2
Nghost:    1951.25 ave 1958 max 1938 min
Histogram: 2 0 0 0 0 0 0 1 1 4
Neighs:    21828.2 ave 22799 max 20517 min
Histogram: 1 0 1 2 0 0 0 1 1 2

Total # of neighbors = 174626
Ave neighs/atom = 43.6565
Neighbor list builds = 250
Dangerous builds not checked
Total wall time: 0:00:04
