LAMMPS (11 Aug 2017)
# 3d Lennard-Jones melt

units		lj
atom_style	atomic
boundary p p p

variable	xx equal ${size}
variable	xx equal 10
variable	yy equal ${size}
variable	yy equal 10
variable	zz equal ${size}
variable	zz equal 10


lattice		fcc ${rho}
lattice		fcc 0.247600
Lattice spacing in x,y,z = 2.52796 2.52796 2.52796
region		box block 0 ${xx} 0 ${yy} 0 ${zz}
region		box block 0 10 0 ${yy} 0 ${zz}
region		box block 0 10 0 10 0 ${zz}
region		box block 0 10 0 10 0 10
create_box	1 box
Created orthogonal box = (0 0 0) to (25.2796 25.2796 25.2796)
  2 by 2 by 2 MPI processor grid
create_atoms	1 box
Created 4000 atoms
mass		1 1.0 #39.948

velocity	all create ${T} 1 loop geom dist uniform#create temp seed
velocity	all create 3.440000 1 loop geom dist uniform
timestep    ${dt}
timestep    0.002000

pair_style	lj/cut 3.0
pair_coeff	1 1 1.0 1.0 3.0

neighbor	0.3 bin
neigh_modify	delay 0 every 20 check no

fix	1 all nve

thermo ${Dump}
thermo 50

thermo_style custom temp press pe ke etotal

#dump dump all custom ${Dump} dump.xyz id type x y z vx vy vz
run		${Run}
run		5000
Neighbor list info ...
  update every 20 steps, delay 0 steps, check no
  max neighbors/atom: 2000, page size: 100000
  master list distance cutoff = 3.3
  ghost atom cutoff = 3.3
  binsize = 1.65, bins = 16 16 16
  1 neighbor lists, perpetual/occasional/extra = 1 0 0
  (1) pair lj/cut, perpetual
      attributes: half, newton on
      pair build: half/bin/atomonly/newton
      stencil: half/bin/3d/newton
      bin: standard
Per MPI rank memory allocation (min/avg/max) = 2.61 | 2.61 | 2.61 Mbytes
Temp Press PotEng KinEng TotEng 
        3.44   0.48696713  -0.75892189      5.15871    4.3997881 
   3.6072044   0.45263167   -1.0310522     5.409454    4.3784017 
   3.5327989    1.2694691  -0.92225125    5.2978735    4.3756223 
   3.7214092    1.1487104   -1.2057503    5.5807182    4.3749679 
   3.7590531     1.130711   -1.2624821      5.63717    4.3746879 
   3.7431869    1.1484582   -1.2389892    5.6133767    4.3743875 
   3.7445534     1.118586   -1.2415407    5.6154258    4.3738851 
   3.7454674    1.1041087    -1.242903    5.6167965    4.3738935 
   3.7487998    1.1048469   -1.2480392    5.6217939    4.3737547 
   3.7616033    1.0915621   -1.2668158    5.6409943    4.3741785 
   3.7421776    1.1438949   -1.2378253    5.6118631    4.3740378 
   3.7516686    1.1284662   -1.2523569     5.626096    4.3737391 
   3.7810844    1.0875191   -1.2966295    5.6702088    4.3735793 
   3.7597767    1.1230115   -1.2645721    5.6382551     4.373683 
   3.7677713    1.0923123    -1.276528    5.6502441     4.373716 
    3.758192    1.1223212   -1.2621859    5.6358786    4.3736927 
   3.7484388    1.1246851   -1.2478825    5.6212525      4.37337 
   3.7544866    1.1041303   -1.2570477     5.630322    4.3732743 
   3.7750065    1.0837935   -1.2876668    5.6610941    4.3734274 
   3.7568427    1.1477374   -1.2605027    5.6338553    4.3733527 
   3.7800922    1.1079478   -1.2954001    5.6687208    4.3733207 
   3.7570164    1.1261519   -1.2611762    5.6341157    4.3729396 
   3.7773991     1.066626   -1.2914004    5.6646822    4.3732818 
   3.7745353    1.0707038    -1.287185    5.6603874    4.3732025 
   3.7692449    1.1105094   -1.2795135    5.6524539    4.3729404 
    3.778623     1.103498   -1.2932296    5.6665176     4.373288 
   3.7716351    1.1359057   -1.2828925    5.6560383    4.3731458 
   3.7503121    1.1686648   -1.2508689    5.6240618    4.3731929 
   3.7770827    1.1146514    -1.291033    5.6642076    4.3731747 
   3.7808227    1.1082876   -1.2966749    5.6698163    4.3731414 
   3.7858497    1.0825369   -1.3042433    5.6773548    4.3731116 
   3.7546552    1.1277756    -1.257274    5.6305748    4.3733008 
   3.7441287    1.1424064   -1.2415596    5.6147891    4.3732295 
   3.7690087    1.0848105   -1.2787128    5.6520997    4.3733869 
   3.7596239    1.1179523   -1.2646722     5.638026    4.3733537 
    3.783728    1.0949297   -1.3006189    5.6741732    4.3735543 
   3.7788632    1.1383072   -1.2934751    5.6668777    4.3734026 
   3.7706112    1.1153216   -1.2810862    5.6545028    4.3734166 
   3.7940935    1.0660109   -1.3164416    5.6897174    4.3732758 
   3.7709162    1.1184898    -1.281518    5.6549602    4.3734423 
   3.7725473    1.1129826    -1.284334    5.6574063    4.3730723 
   3.7696108    1.1173518   -1.2798444    5.6530026    4.3731582 
   3.7688993    1.1224445   -1.2786435    5.6519356     4.373292 
   3.7605704    1.1414213   -1.2660382    5.6394453    4.3734071 
   3.7853827    1.0892191   -1.3032311    5.6766546    4.3734235 
   3.7751037    1.1174409   -1.2878036      5.66124    4.3734363 
    3.773845    1.1053473   -1.2858642    5.6593523    4.3734881 
   3.7687286    1.1323411   -1.2783356    5.6516796     4.373344 
   3.7724057    1.1326575   -1.2839475    5.6571938    4.3732463 
   3.7902414    1.0808055   -1.3107649    5.6839408    4.3731759 
   3.7723631    1.1107064   -1.2839334    5.6571301    4.3731967 
   3.7660277     1.113906   -1.2744108    5.6476293    4.3732184 
   3.7664677    1.1141476   -1.2748526    5.6482891    4.3734365 
   3.7714771    1.1311834   -1.2824599    5.6558013    4.3733414 
    3.766984     1.136237    -1.275896    5.6490634    4.3731674 
   3.7798932    1.1123618   -1.2953544    5.6684223    4.3730679 
   3.7816645    1.1008197   -1.2981153    5.6710787    4.3729634 
   3.7706048    1.1254012   -1.2813582    5.6544933     4.373135 
   3.7959377    1.0782213    -1.319328    5.6924831    4.3731551 
   3.7653526    1.1401017   -1.2734199    5.6466169     4.373197 
    3.783068    1.0931553   -1.2999946    5.6731834    4.3731888 
    3.770171    1.1088866   -1.2805773    5.6538427    4.3732654 
   3.7881484    1.0811915   -1.3073427     5.680802    4.3734594 
   3.7690597     1.135177   -1.2787349    5.6521761    4.3734411 
   3.7737264    1.1099178    -1.285642    5.6591744    4.3735323 
   3.7867874    1.0882593   -1.3053344     5.678761    4.3734267 
   3.7851857    1.0972056   -1.3030333    5.6763591    4.3733258 
   3.7884083    1.0917165   -1.3081316    5.6811918    4.3730603 
   3.7627938    1.1276015   -1.2697674    5.6427796    4.3730122 
    3.783661    1.0968795   -1.3009492    5.6740726    4.3731235 
   3.7659572    1.1413037   -1.2742441    5.6475235    4.3732794 
   3.7605609    1.1612089   -1.2661422    5.6394312     4.373289 
   3.7901944    1.0890735   -1.3108384    5.6838703    4.3730319 
    3.763288    1.1358341   -1.2703106    5.6435208    4.3732102 
   3.7695645    1.1363425   -1.2796575    5.6529332    4.3732757 
   3.7747904    1.1165003    -1.287579      5.66077     4.373191 
    3.777668    1.1111582   -1.2920258    5.6650853    4.3730595 
   3.7713466    1.1238844   -1.2824035    5.6556056    4.3732021 
   3.7972354    1.0951725   -1.3211322    5.6944291    4.3732969 
   3.7814468    1.1361158   -1.2973808    5.6707522    4.3733715 
   3.7684693    1.1265015   -1.2782004    5.6512908    4.3730904 
   3.7547614     1.121651    -1.257507    5.6307341    4.3732271 
   3.7596022    1.1262372   -1.2646878    5.6379934    4.3733057 
   3.7609617    1.1163953   -1.2665857    5.6400321    4.3734464 
   3.7580756    1.1144509   -1.2624077    5.6357041    4.3732964 
   3.7656571    1.1150322    -1.274012    5.6470736    4.3730616 
   3.7483659    1.1428484   -1.2479539    5.6211432    4.3731893 
   3.7711263    1.1025076   -1.2821138    5.6552753    4.3731615 
   3.7749993     1.118579   -1.2880665    5.6610833    4.3730168 
   3.7799209    1.1151019   -1.2955866    5.6684638    4.3728773 
   3.7661543    1.1459149   -1.2750325    5.6478192    4.3727867 
   3.7906415    1.1029266   -1.3116107    5.6845407      4.37293 
   3.7868543    1.0941981    -1.306076    5.6788614    4.3727854 
   3.7786073    1.1116718   -1.2934187     5.666494    4.3730753 
    3.781204    1.1184039   -1.2972864     5.670388    4.3731016 
   3.7781121    1.1310532   -1.2927763    5.6657514    4.3729751 
   3.7827184    1.1069533   -1.2995572     5.672659    4.3731018 
   3.7690597    1.1208655    -1.279186    5.6521761    4.3729901 
   3.7919584    1.0738195   -1.3135461    5.6865156    4.3729694 
    3.768853    1.1378912   -1.2787868    5.6518663    4.3730794 
   3.7775041    1.1323857   -1.2918632    5.6648396    4.3729765 
Loop time of 4.76408 on 8 procs for 5000 steps with 4000 atoms

Performance: 181357.269 tau/day, 1049.521 timesteps/s
47.7% CPU use with 8 MPI tasks x no OpenMP threads

MPI task timing breakdown:
Section |  min time  |  avg time  |  max time  |%varavg| %total
---------------------------------------------------------------
Pair    | 1.0047     | 1.1044     | 1.2351     |   6.7 | 23.18
Neigh   | 0.1595     | 0.1728     | 0.21295    |   3.8 |  3.63
Comm    | 3.2706     | 3.4055     | 3.5049     |   4.3 | 71.48
Output  | 0.024217   | 0.029217   | 0.035932   |   2.4 |  0.61
Modify  | 0.04041    | 0.042204   | 0.04465    |   0.7 |  0.89
Other   |            | 0.009938   |            |       |  0.21

Nlocal:    500 ave 512 max 476 min
Histogram: 1 0 1 0 0 0 2 1 0 3
Nghost:    1260.75 ave 1279 max 1236 min
Histogram: 1 1 0 0 1 1 0 1 2 1
Neighs:    9242.62 ave 9821 max 8406 min
Histogram: 1 1 0 0 0 1 2 0 2 1

Total # of neighbors = 73941
Ave neighs/atom = 18.4853
Neighbor list builds = 250
Dangerous builds not checked
Total wall time: 0:00:04
