LAMMPS (11 Aug 2017)
# 3d Lennard-Jones melt

units		lj
atom_style	atomic
boundary p p p

variable	xx equal ${size}
variable	xx equal 10
variable	yy equal ${size}
variable	yy equal 10
variable	zz equal ${size}
variable	zz equal 10


lattice		fcc ${rho}
lattice		fcc 0.109000
Lattice spacing in x,y,z = 3.32311 3.32311 3.32311
region		box block 0 ${xx} 0 ${yy} 0 ${zz}
region		box block 0 10 0 ${yy} 0 ${zz}
region		box block 0 10 0 10 0 ${zz}
region		box block 0 10 0 10 0 10
create_box	1 box
Created orthogonal box = (0 0 0) to (33.2311 33.2311 33.2311)
  2 by 2 by 2 MPI processor grid
create_atoms	1 box
Created 4000 atoms
mass		1 1.0 #39.948

velocity	all create ${T} 1 loop geom dist uniform#create temp seed
velocity	all create 1.160000 1 loop geom dist uniform
timestep    ${dt}
timestep    0.002000

pair_style	lj/cut 3.0
pair_coeff	1 1 1.0 1.0 3.0

neighbor	0.3 bin
neigh_modify	delay 0 every 20 check no

fix	1 all nve

thermo ${Dump}
thermo 50

thermo_style custom temp press pe ke etotal

#dump dump all custom ${Dump} dump.xyz id type x y z vx vy vz
run		${Run}
run		5000
Neighbor list info ...
  update every 20 steps, delay 0 steps, check no
  max neighbors/atom: 2000, page size: 100000
  master list distance cutoff = 3.3
  ghost atom cutoff = 3.3
  binsize = 1.65, bins = 21 21 21
  1 neighbor lists, perpetual/occasional/extra = 1 0 0
  (1) pair lj/cut, perpetual
      attributes: half, newton on
      pair build: half/bin/atomonly/newton
      stencil: half/bin/3d/newton
      bin: standard
Per MPI rank memory allocation (min/avg/max) = 2.587 | 2.587 | 2.587 Mbytes
Temp Press PotEng KinEng TotEng 
        1.16  0.095696964  -0.14172505     1.739565    1.5978399 
   1.1661485  0.094392118  -0.15106721    1.7487855    1.5977183 
   1.1902422  0.089246666  -0.18875656    1.7849169    1.5961604 
    1.249831  0.084932066  -0.27672398    1.8742778    1.5975539 
   1.2943077    0.1392276  -0.34193307    1.9409761     1.599043 
    1.359636   0.16013692  -0.43928904    2.0389442    1.5996551 
   1.4118725   0.14942342  -0.51729128    2.1172793    1.5999881 
   1.4440733   0.13709447  -0.56565384    2.1655685    1.5999146 
   1.4541645    0.1434653   -0.5811555    2.1807014    1.5995459 
   1.4709463   0.13922901  -0.60667839    2.2058679    1.5991895 
   1.4695432   0.14323637  -0.60485048    2.2037638    1.5989133 
   1.4752458    0.1345698  -0.61360162    2.2123154    1.5987138 
   1.4801036   0.13040719  -0.62099227    2.2196003    1.5986081 
   1.4817868   0.13609432  -0.62373392    2.2221245    1.5983905 
   1.4845246   0.14342428  -0.62793615    2.2262302     1.598294 
   1.4932593   0.14362326  -0.64101282     2.239329    1.5983161 
    1.500576   0.13990386  -0.65205064    2.2503013    1.5982507 
   1.4968907   0.14370677  -0.64676672    2.2447747     1.598008 
   1.4996099   0.14229652  -0.65102052    2.2488525     1.597832 
   1.5020794   0.14083932  -0.65473671    2.2525558    1.5978191 
   1.5043043   0.14020643  -0.65809623    2.2558924    1.5977962 
   1.5159472   0.13286673  -0.67570185    2.2733523    1.5976504 
    1.511891   0.14135362  -0.66957816    2.2672696    1.5976914 
   1.5214382   0.13705597  -0.68392788    2.2815868    1.5976589 
    1.521746   0.13905376   -0.6844634    2.2820483    1.5975849 
   1.5207616   0.14108023  -0.68305971    2.2805721    1.5975124 
   1.5218795   0.13958341  -0.68467336    2.2822486    1.5975753 
   1.5161245   0.14442454  -0.67614648    2.2736182    1.5974717 
   1.5244841   0.13647414  -0.68871674    2.2861545    1.5974377 
   1.5203654   0.14246418  -0.68256079     2.279978    1.5974172 
   1.5286211   0.13835661  -0.69506346    2.2923584     1.597295 
   1.5287564   0.14118742  -0.69530627    2.2925614    1.5972551 
   1.5296331   0.14203178  -0.69662359     2.293876    1.5972524 
   1.5351044   0.13650205  -0.70491831    2.3020809    1.5971626 
   1.5411452   0.12977971  -0.71403201    2.3111399    1.5971079 
   1.5333924   0.14092102  -0.70243186    2.2995136    1.5970818 
   1.5453128   0.13478233  -0.72036213    2.3173898    1.5970277 
   1.5438399   0.13938009  -0.71828631    2.3151809    1.5968946 
   1.5431766   0.14476014  -0.71733903    2.3141862    1.5968471 
   1.5466538   0.13788989  -0.72275833    2.3194007    1.5966423 
   1.5451242   0.13749549  -0.72041867    2.3171068    1.5966882 
   1.5442023   0.13935895  -0.71921576    2.3157244    1.5965087 
   1.5498723   0.13452227  -0.72786139    2.3242272    1.5963659 
   1.5530856   0.13653849  -0.73281485    2.3290461    1.5962312 
   1.5584426   0.13850149  -0.74098253    2.3370794    1.5960969 
   1.5611522   0.13957515  -0.74493525    2.3411429    1.5962077 
   1.5559852   0.14062259  -0.73724473    2.3333943    1.5961496 
   1.5537176   0.14135356  -0.73373077    2.3299937    1.5962629 
   1.5528114    0.1450417  -0.73237928    2.3286347    1.5962554 
   1.5595613   0.13957651  -0.74261464    2.3387571    1.5961425 
   1.5535169   0.14452538  -0.73338203    2.3296927    1.5963107 
   1.5440149   0.15144666  -0.71903666    2.3154434    1.5964068 
   1.5607835   0.13667246  -0.74413352      2.34059    1.5964565 
   1.5580926   0.14200928  -0.74005336    2.3365546    1.5965013 
   1.5570672   0.14678302  -0.73853299    2.3350169    1.5964839 
   1.5581371   0.14061057  -0.74017205    2.3366214    1.5964493 
   1.5492569     0.146334  -0.72693599    2.3233043    1.5963683 
   1.5637799   0.13259343  -0.74874076    2.3450834    1.5963427 
   1.5516444   0.14282341  -0.73063242    2.3268847    1.5962523 
   1.5614992   0.13473217  -0.74528022    2.3416633     1.596383 
   1.5552702   0.14537295  -0.73598606    2.3323221     1.596336 
   1.5613499   0.14221755  -0.74521352    2.3414393    1.5962258 
   1.5579617   0.13870649  -0.74012983    2.3363583    1.5962285 
    1.556083   0.13604656  -0.73727117     2.333541    1.5962699 
   1.5570813   0.13657684  -0.73867038     2.335038    1.5963676 
   1.5561174   0.14002768  -0.73728729    2.3335926    1.5963053 
   1.5530393   0.14192455  -0.73247829    2.3289765    1.5964982 
   1.5513441   0.14071779  -0.72993496    2.3264344    1.5964995 
   1.5480403   0.14022258  -0.72510015      2.32148    1.5963798 
   1.5471282   0.13601689  -0.72383955    2.3201121    1.5962725 
   1.5449142   0.13740601  -0.72058942    2.3167919    1.5962025 
   1.5517167   0.13425049  -0.73071381    2.3269932    1.5962794 
    1.550999   0.14029525  -0.72964941    2.3259169    1.5962675 
   1.5486875   0.14803411  -0.72620476    2.3224504    1.5962457 
    1.551296   0.14610122  -0.73000707    2.3263623    1.5963553 
   1.5536178   0.14425269   -0.7334584    2.3298441    1.5963857 
   1.5548172   0.14087667  -0.73529556    2.3316428    1.5963472 
   1.5588514   0.13526127  -0.74141766    2.3376925    1.5962748 
   1.5516001   0.14395467  -0.73043849    2.3268183    1.5963798 
   1.5570722   0.13895848  -0.73863348    2.3350245     1.596391 
   1.5614899   0.13732225  -0.74525727    2.3416493     1.596392 
   1.5549896   0.14353132  -0.73550185    2.3319012    1.5963994 
    1.553327   0.14111543  -0.73295216    2.3294081    1.5964559 
   1.5499899    0.1423591  -0.72803156    2.3244036     1.596372 
   1.5512142   0.13929287  -0.72978405    2.3262396    1.5964556 
   1.5519176   0.13494407  -0.73075393    2.3272944    1.5965405 
    1.553506   0.13750006  -0.73304818    2.3296765    1.5966283 
   1.5532087   0.14310126  -0.73266109    2.3292306    1.5965695 
   1.5516136   0.14534044  -0.73010738    2.3268386    1.5967312 
   1.5514163   0.14446654  -0.72984678    2.3265426    1.5966958 
   1.5552006   0.13992327  -0.73558545    2.3322177    1.5966323 
    1.557872   0.13265549  -0.73962094    2.3362238    1.5966028 
   1.5538046   0.13428981  -0.73368967    2.3301242    1.5964346 
   1.5541746    0.1390881  -0.73422884    2.3306791    1.5964503 
   1.5519338   0.14440148  -0.73083935    2.3273187    1.5964793 
   1.5582679   0.13864114  -0.74026811    2.3368175    1.5965494 
   1.5602788   0.13787015  -0.74326047    2.3398331    1.5965727 
   1.5569187   0.14553585  -0.73827697    2.3347942    1.5965173 
   1.5642722   0.14281846  -0.74941536    2.3458217    1.5964063 
   1.5607497   0.14694519  -0.74423042    2.3405393    1.5963089 
   1.5578172   0.14310221   -0.7398712    2.3361416    1.5962704 
Loop time of 1.68413 on 8 procs for 5000 steps with 4000 atoms

Performance: 513024.107 tau/day, 2968.890 timesteps/s
60.0% CPU use with 8 MPI tasks x no OpenMP threads

MPI task timing breakdown:
Section |  min time  |  avg time  |  max time  |%varavg| %total
---------------------------------------------------------------
Pair    | 0.458      | 0.48588    | 0.51166    |   2.5 | 28.85
Neigh   | 0.10586    | 0.11216    | 0.11646    |   1.0 |  6.66
Comm    | 0.99748    | 1.029      | 1.0588     |   2.1 | 61.10
Output  | 0.004318   | 0.0063061  | 0.014658   |   4.2 |  0.37
Modify  | 0.040565   | 0.042782   | 0.051773   |   1.7 |  2.54
Other   |            | 0.008012   |            |       |  0.48

Nlocal:    500 ave 544 max 464 min
Histogram: 1 0 2 1 1 0 2 0 0 1
Nghost:    872.125 ave 911 max 842 min
Histogram: 2 1 0 1 1 1 0 0 0 2
Neighs:    4146.62 ave 4979 max 3642 min
Histogram: 1 2 1 0 2 1 0 0 0 1

Total # of neighbors = 33173
Ave neighs/atom = 8.29325
Neighbor list builds = 250
Dangerous builds not checked
Total wall time: 0:00:01
