LAMMPS (11 Aug 2017)
# 3d Lennard-Jones melt

units		lj
atom_style	atomic
boundary p p p

variable	xx equal ${size}
variable	xx equal 10
variable	yy equal ${size}
variable	yy equal 10
variable	zz equal ${size}
variable	zz equal 10


lattice		fcc ${rho}
lattice		fcc 1.000000
Lattice spacing in x,y,z = 1.5874 1.5874 1.5874
region		box block 0 ${xx} 0 ${yy} 0 ${zz}
region		box block 0 10 0 ${yy} 0 ${zz}
region		box block 0 10 0 10 0 ${zz}
region		box block 0 10 0 10 0 10
create_box	1 box
Created orthogonal box = (0 0 0) to (15.874 15.874 15.874)
  2 by 2 by 2 MPI processor grid
create_atoms	1 box
Created 4000 atoms
mass		1 1.0 #39.948

velocity	all create ${T} 1 loop geom dist uniform#create temp seed
velocity	all create 1.220000 1 loop geom dist uniform
timestep    ${dt}
timestep    0.002000

pair_style	lj/cut 3.0
pair_coeff	1 1 1.0 1.0 3.0

neighbor	0.3 bin
neigh_modify	delay 0 every 20 check no

fix	1 all nve

thermo ${Dump}
thermo 50

thermo_style custom temp press pe ke etotal

#dump dump all custom ${Dump} dump.xyz id type x y z vx vy vz
run		${Run}
run		5000
Neighbor list info ...
  update every 20 steps, delay 0 steps, check no
  max neighbors/atom: 2000, page size: 100000
  master list distance cutoff = 3.3
  ghost atom cutoff = 3.3
  binsize = 1.65, bins = 10 10 10
  1 neighbor lists, perpetual/occasional/extra = 1 0 0
  (1) pair lj/cut, perpetual
      attributes: half, newton on
      pair build: half/bin/atomonly/newton
      stencil: half/bin/3d/newton
      bin: standard
Per MPI rank memory allocation (min/avg/max) = 2.695 | 2.695 | 2.695 Mbytes
Temp Press PotEng KinEng TotEng 
        1.22   -2.9076063   -8.1295091    1.8295425   -6.2999666 
  0.48806419    2.6208009   -6.9803758   0.73191326   -6.2484626 
  0.59014151    1.8383286   -7.1333602   0.88499097   -6.2483692 
  0.64327178      1.43901   -7.2144229   0.96466644   -6.2497564 
  0.64611152    1.3992649   -7.2190236   0.96892498   -6.2500987 
  0.64105112    1.4536508   -7.2114776   0.96133629   -6.2501413 
  0.63645601    1.4731897   -7.2043038   0.95444534   -6.2498584 
  0.65023983    1.3782052   -7.2251614    0.9751159   -6.2500455 
  0.64491488    1.4094806   -7.2175986   0.96713048   -6.2504682 
  0.64283999    1.4295582   -7.2145258   0.96401892   -6.2505069 
    0.640935    1.4458884   -7.2115699   0.96116214   -6.2504077 
  0.64293205    1.4448759   -7.2142707   0.96415698   -6.2501138 
  0.64379036    1.4330894   -7.2155629   0.96544412   -6.2501188 
  0.62949799    1.5420122   -7.1941412   0.94401092   -6.2501303 
  0.63898977    1.4708922   -7.2085047   0.95824504   -6.2502597 
  0.64373212    1.4374567   -7.2155197   0.96535678    -6.250163 
  0.63258583    1.5131225   -7.1987974   0.94864153   -6.2501559 
  0.63971382    1.4560807   -7.2094059   0.95933084    -6.250075 
  0.63976435    1.4647693    -7.209905   0.95940661   -6.2504984 
   0.6367325    1.4810859   -7.2050039   0.95485997   -6.2501439 
  0.63678041    1.4832224   -7.2051358   0.95493182   -6.2502039 
  0.63741875    1.4768704   -7.2062477    0.9558891   -6.2503586 
   0.6461163    1.4170318   -7.2193414   0.96893215   -6.2504092 
  0.63359891    1.5094178   -7.2002466   0.95016076   -6.2500858 
  0.63570556    1.4959739   -7.2035017   0.95331995   -6.2501817 
  0.63788672    1.4743267   -7.2066695   0.95659088   -6.2500787 
  0.64125742    1.4377786   -7.2118835   0.96164566   -6.2502379 
  0.63931712    1.4571046   -7.2090879   0.95873594   -6.2503519 
  0.64484014     1.416083   -7.2176487   0.96701839   -6.2506303 
    0.635895    1.4848408   -7.2037725   0.95360405   -6.2501684 
  0.64230084    1.4393958   -7.2136873    0.9632104   -6.2504769 
  0.63528284    1.4806475   -7.2029995   0.95268603   -6.2503134 
  0.64126106    1.4487494    -7.211734   0.96165112   -6.2500828 
  0.64045721    1.4518966   -7.2107895   0.96044564   -6.2503439 
  0.64489221    1.4196393   -7.2172252   0.96709648   -6.2501287 
  0.63694182    1.4804549   -7.2053431   0.95517388   -6.2501692 
  0.63797713    1.4739621   -7.2069895   0.95672646    -6.250263 
  0.64233748    1.4249079   -7.2136488   0.96326534   -6.2503835 
  0.64350771    1.4396131   -7.2152716   0.96502025   -6.2502513 
  0.64068821     1.460535   -7.2108488   0.96079206   -6.2500568 
  0.63093573    1.5284542   -7.1962257   0.94616699   -6.2500588 
  0.64676004     1.398503   -7.2203716   0.96989752   -6.2504741 
  0.64225709    1.4457464    -7.213367   0.96314479   -6.2502222 
  0.63704969    1.4766667   -7.2053705   0.95533564   -6.2500349 
  0.63658347    1.4764568   -7.2049001   0.95463649   -6.2502636 
  0.65189339    1.3772991   -7.2279802   0.97759562   -6.2503846 
  0.64162024    1.4486512   -7.2124789   0.96218976   -6.2502891 
  0.63577014    1.4904068   -7.2037178   0.95341679    -6.250301 
  0.63375876    1.5133109   -7.2004592   0.95040048   -6.2500587 
  0.64519116    1.4248648   -7.2178338    0.9675448    -6.250289 
  0.64558454    1.4194484   -7.2183749   0.96813472   -6.2502402 
  0.62950154     1.536409   -7.1941208   0.94401625   -6.2501046 
  0.63859095    1.4682064   -7.2079765   0.95764696   -6.2503296 
  0.64725321    1.4058083   -7.2211926   0.97063709   -6.2505555 
  0.64640345     1.404496    -7.219959   0.96936278   -6.2505962 
  0.63727251    1.4915386   -7.2058157   0.95566978   -6.2501459 
  0.63970133    1.4718812   -7.2095688    0.9593121   -6.2502567 
  0.65347629    1.3607848   -7.2304157   0.97996938   -6.2504464 
  0.63985471    1.4499351   -7.2099493   0.95954212   -6.2504071 
  0.64302646    1.4413116   -7.2144157   0.96429855   -6.2501171 
  0.63577136    1.4908746   -7.2035609   0.95341862   -6.2501423 
   0.6393027    1.4691732   -7.2087945   0.95871431   -6.2500802 
  0.64171726    1.4517009   -7.2126728   0.96233525   -6.2503376 
  0.64076677    1.4516616   -7.2111769   0.96090987    -6.250267 
  0.63589564    1.4793131   -7.2038953   0.95360501   -6.2502902 
   0.6338311    1.4921462   -7.2007641   0.95050896   -6.2502552 
  0.64817629    1.3862628    -7.222509   0.97202137   -6.2504876 
  0.63745865    1.4763035   -7.2059386   0.95594893   -6.2499897 
  0.63981946    1.4498974   -7.2096756   0.95948926   -6.2501863 
  0.63639832    1.4824031   -7.2046183   0.95435883   -6.2502595 
  0.65105422    1.3749839   -7.2267458   0.97633719   -6.2504086 
  0.63458835    1.4951161   -7.2017822   0.95164456   -6.2501376 
  0.63350902    1.5021948   -7.2000524   0.95002597   -6.2500264 
  0.63240307    1.5161285   -7.1983315   0.94836746    -6.249964 
  0.64365343    1.4358384   -7.2155424   0.96523878   -6.2503036 
  0.64315899    1.4257293   -7.2148887    0.9644973   -6.2503914 
   0.6420658    1.4358404   -7.2130318   0.96285792   -6.2501739 
  0.64440501     1.430696    -7.216749   0.96636586   -6.2503831 
  0.63011102    1.5298273   -7.1950906   0.94493024   -6.2501603 
  0.64496494    1.4151896   -7.2175829   0.96720554   -6.2503773 
  0.63474134    1.4934533   -7.2021483   0.95187398   -6.2502743 
  0.64342324    1.4306436   -7.2152047   0.96489358   -6.2503111 
  0.63279379    1.5105225   -7.1991833   0.94895338   -6.2502299 
  0.62653578     1.546991   -7.1898069   0.93956872   -6.2502382 
  0.63787023    1.4781295   -7.2064877   0.95656614   -6.2499215 
  0.64135308    1.4453208   -7.2121484   0.96178911   -6.2503593 
  0.64010371    1.4556515   -7.2100227   0.95991552   -6.2501072 
  0.63739058    1.4685258   -7.2061341   0.95584684   -6.2502872 
  0.64057919    1.4504225   -7.2109005   0.96062857    -6.250272 
  0.64256507    1.4384165   -7.2137469   0.96360665   -6.2501402 
  0.63188877    1.5298127   -7.1977363    0.9475962   -6.2501401 
  0.64216689    1.4384403   -7.2131603   0.96300952   -6.2501508 
  0.64517729    1.4159544   -7.2178252   0.96752399   -6.2503012 
  0.63915145    1.4559322    -7.208893    0.9584875   -6.2504055 
  0.63772657     1.463796   -7.2067382   0.95635071   -6.2503875 
  0.64539191    1.4051321   -7.2184204   0.96784584   -6.2505745 
  0.63772171    1.4692687   -7.2065718   0.95634342   -6.2502283 
  0.63942709    1.4734603   -7.2090452   0.95890085   -6.2501444 
  0.63826127    1.4804727   -7.2074497   0.95715255   -6.2502971 
  0.63825209    1.4762107   -7.2071497   0.95713879   -6.2500109 
  0.64283348    1.4383113   -7.2146041   0.96400916   -6.2505949 
Loop time of 16.9721 on 8 procs for 5000 steps with 4000 atoms

Performance: 50907.158 tau/day, 294.602 timesteps/s
49.4% CPU use with 8 MPI tasks x no OpenMP threads

MPI task timing breakdown:
Section |  min time  |  avg time  |  max time  |%varavg| %total
---------------------------------------------------------------
Pair    | 4.6001     | 4.8311     | 5.0356     |   7.3 | 28.46
Neigh   | 0.43291    | 0.47401    | 0.59341    |   7.1 |  2.79
Comm    | 11.237     | 11.551     | 11.805     |   5.5 | 68.06
Output  | 0.011906   | 0.027233   | 0.040607   |   6.4 |  0.16
Modify  | 0.052317   | 0.062318   | 0.090829   |   5.0 |  0.37
Other   |            | 0.02665    |            |       |  0.16

Nlocal:    500 ave 518 max 473 min
Histogram: 1 0 1 0 0 1 1 1 2 1
Nghost:    2895.62 ave 2926 max 2875 min
Histogram: 1 1 2 1 1 0 0 0 1 1
Neighs:    36926.8 ave 38753 max 35060 min
Histogram: 1 0 0 2 1 1 1 1 0 1

Total # of neighbors = 295414
Ave neighs/atom = 73.8535
Neighbor list builds = 250
Dangerous builds not checked
Total wall time: 0:00:17
