LAMMPS (11 Aug 2017)
# 3d Lennard-Jones melt

units		lj
atom_style	atomic
boundary p p p

variable	xx equal ${size}
variable	xx equal 10
variable	yy equal ${size}
variable	yy equal 10
variable	zz equal ${size}
variable	zz equal 10


lattice		fcc ${rho}
lattice		fcc 0.960400
Lattice spacing in x,y,z = 1.60893 1.60893 1.60893
region		box block 0 ${xx} 0 ${yy} 0 ${zz}
region		box block 0 10 0 ${yy} 0 ${zz}
region		box block 0 10 0 10 0 ${zz}
region		box block 0 10 0 10 0 10
create_box	1 box
Created orthogonal box = (0 0 0) to (16.0893 16.0893 16.0893)
  2 by 2 by 2 MPI processor grid
create_atoms	1 box
Created 4000 atoms
mass		1 1.0 #39.948

velocity	all create ${T} 1 loop geom dist uniform#create temp seed
velocity	all create 2.780000 1 loop geom dist uniform
timestep    ${dt}
timestep    0.002000

pair_style	lj/cut 3.0
pair_coeff	1 1 1.0 1.0 3.0

neighbor	0.3 bin
neigh_modify	delay 0 every 20 check no

fix	1 all nve

thermo ${Dump}
thermo 50

thermo_style custom temp press pe ke etotal

#dump dump all custom ${Dump} dump.xyz id type x y z vx vy vz
run		${Run}
run		5000
Neighbor list info ...
  update every 20 steps, delay 0 steps, check no
  max neighbors/atom: 2000, page size: 100000
  master list distance cutoff = 3.3
  ghost atom cutoff = 3.3
  binsize = 1.65, bins = 10 10 10
  1 neighbor lists, perpetual/occasional/extra = 1 0 0
  (1) pair lj/cut, perpetual
      attributes: half, newton on
      pair build: half/bin/atomonly/newton
      stencil: half/bin/3d/newton
      bin: standard
Per MPI rank memory allocation (min/avg/max) = 2.695 | 2.695 | 2.695 Mbytes
Temp Press PotEng KinEng TotEng 
        2.78   -2.4082141   -7.8038428    4.1689575   -3.6348853 
   1.3795902    7.5120218   -5.7630789     2.068868   -3.6942109 
   1.4035777    7.2578312   -5.7995353    2.1048403    -3.694695 
   1.4123857    7.1834171   -5.8128082     2.118049   -3.6947592 
   1.4429354    7.0027098   -5.8591316    2.1638621   -3.6952695 
   1.4349002     7.037105   -5.8470608    2.1518122   -3.6952487 
   1.4577254    6.8644685   -5.8814549    2.1860414   -3.6954135 
   1.4527909    6.9063077   -5.8738087    2.1786415   -3.6951672 
   1.4488461    6.9314303    -5.868092    2.1727258   -3.6953662 
   1.4432711    6.9975159   -5.8597211    2.1643655   -3.6953556 
   1.4520418     6.953183   -5.8730618    2.1775182   -3.6955436 
   1.4417554    6.9920558   -5.8573695    2.1620925   -3.6952771 
   1.4603245    6.8717395   -5.8852532    2.1899392    -3.695314 
   1.4396543    6.9885482     -5.85415    2.1589416   -3.6952083 
   1.4647083    6.8226814   -5.8917615    2.1965132   -3.6952482 
   1.4571835    6.8952008   -5.8803238    2.1852287   -3.6950951 
   1.4378377    7.0044734   -5.8515598    2.1562174   -3.6953425 
   1.4583503    6.8760282   -5.8823145    2.1869786   -3.6953359 
   1.4529566    6.9080945   -5.8743414      2.17889   -3.6954514 
   1.4311947    7.0542226   -5.8416299    2.1462553   -3.6953746 
   1.4620642    6.8612352   -5.8879309     2.192548   -3.6953828 
   1.4322387    7.0777516   -5.8431351     2.147821   -3.6953141 
   1.4341197    7.0532099   -5.8457589    2.1506418   -3.6951171 
    1.445802    6.9720975   -5.8635101    2.1681609   -3.6953492 
   1.4370899    7.0409154   -5.8503194    2.1550959   -3.6952235 
   1.4415626    6.9812559   -5.8572646    2.1618033   -3.6954613 
   1.4481748    6.9478804   -5.8672357    2.1717191   -3.6955166 
   1.4157401    7.1668878   -5.8187447    2.1230793   -3.6956654 
   1.4472118    6.9617677   -5.8659952     2.170275   -3.6957202 
   1.4384265    7.0170694   -5.8525072    2.1571004   -3.6954068 
    1.426182    7.0928721   -5.8342121    2.1387382    -3.695474 
   1.4288908     7.103788   -5.8383603    2.1428004   -3.6955599 
   1.4139695    7.1957914   -5.8160291     2.120424    -3.695605 
   1.4143443    7.1726444   -5.8167294    2.1209861   -3.6957433 
   1.4061958    7.2281101   -5.8045479    2.1087664   -3.6957814 
   1.4181406    7.1744896   -5.8222554     2.126679   -3.6955764 
    1.420416    7.1507057   -5.8259099    2.1300913   -3.6958186 
   1.4154399    7.1757291   -5.8182297     2.122629   -3.6956007 
   1.4053824    7.2663672   -5.8032009    2.1075466   -3.6956543 
   1.4181985    7.1903172   -5.8225036    2.1267659   -3.6957378 
   1.4230796    7.1546825   -5.8299531    2.1340857   -3.6958674 
   1.4135281    7.2479285   -5.8156181     2.119762   -3.6958561 
   1.4139624    7.2172108   -5.8163525    2.1204134   -3.6959391 
   1.4175108    7.2110409   -5.8217377    2.1257347    -3.696003 
   1.4154389    7.2024994   -5.8186506    2.1226275    -3.696023 
   1.3849953    7.4475929   -5.7730637    2.0769735   -3.6960902 
   1.3828094    7.4281608   -5.7698141    2.0736956   -3.6961185 
   1.3955296    7.3544446   -5.7888773    2.0927711   -3.6961062 
   1.3738681    7.4902704   -5.7560784    2.0602869   -3.6957915 
   1.3675914    7.5343767   -5.7468977    2.0508742   -3.6960235 
   1.3763354    7.4759343   -5.7602414    2.0639869   -3.6962545 
   1.3724188    7.5073581   -5.7544352    2.0581136   -3.6963216 
   1.4051656    7.2945159    -5.803474    2.1072215   -3.6962525 
    1.371148    7.5334248   -5.7523256    2.0562078   -3.6961177 
   1.3924615    7.3902802    -5.784435    2.0881701   -3.6962649 
   1.3699858    7.5459639   -5.7509401    2.0544649   -3.6964752 
     1.38471    7.4252725   -5.7727798    2.0765458   -3.6962341 
   1.3822944    7.4656691   -5.7691673    2.0729232   -3.6962442 
   1.3671207    7.5470452   -5.7464036    2.0501684   -3.6962352 
   1.3607732    7.6058808   -5.7370684    2.0406496   -3.6964188 
   1.3653008    7.5711362   -5.7439798    2.0474392   -3.6965406 
   1.3529893    7.6835492   -5.7254979    2.0289766   -3.6965213 
   1.3638769    7.6039879   -5.7421049    2.0453039   -3.6968009 
    1.344109     7.698241   -5.7121123    2.0156594   -3.6964529 
   1.3408809    7.7373991   -5.7073672    2.0108185   -3.6965487 
   1.3344045    7.7971507   -5.6976129    2.0011064   -3.6965065 
   1.3658341    7.5912685   -5.7446824     2.048239   -3.6964434 
     1.33398     7.800902   -5.6972448    2.0004697   -3.6967751 
   1.3385275    7.7811194   -5.7037884    2.0072893   -3.6964991 
   1.3363157    7.7873037   -5.7004621    2.0039724   -3.6964896 
   1.3269309    7.8527787    -5.686418    1.9898988   -3.6965192 
   1.3369133    7.7663037   -5.7013505    2.0048686   -3.6964819 
   1.3385844    7.7567155   -5.7041741    2.0073747   -3.6967994 
   1.3285625    7.8326548   -5.6891578    1.9923455   -3.6968124 
   1.3190914    7.8998677   -5.6747876    1.9781425   -3.6966451 
   1.3138674    7.9482343   -5.6670614    1.9703084    -3.696753 
   1.3125082    7.9436159   -5.6647773      1.96827   -3.6965072 
   1.3226403    7.8625418   -5.6801029    1.9834644   -3.6966384 
   1.3193799    7.8796112   -5.6751064    1.9785751   -3.6965312 
   1.3136663    7.9070754   -5.6666417    1.9700068   -3.6966349 
   1.3092283    7.9505654   -5.6600085    1.9633514   -3.6966571 
   1.3044824    7.9849128   -5.6528789    1.9562344   -3.6966446 
    1.301129    8.0174249   -5.6481136    1.9512056    -3.696908 
   1.3122776    7.9509156   -5.6647178    1.9679243   -3.6967935 
   1.2803649    8.1523828   -5.6171028    1.9200672   -3.6970356 
   1.3116439    7.9662057   -5.6636266     1.966974   -3.6966526 
   1.2624803    8.2954983   -5.5898902     1.893247   -3.6966431 
    1.308478    7.9855196   -5.6589969    1.9622264   -3.6967705 
   1.3111012    7.9903505   -5.6630505    1.9661601   -3.6968904 
   1.2795274    8.1833049   -5.6158426    1.9188112   -3.6970313 
   1.2776734    8.2046898   -5.6128936     1.916031   -3.6968626 
   1.2770122    8.1963082   -5.6121698    1.9150394   -3.6971304 
   1.2738203    8.2285002   -5.6074026    1.9102527   -3.6971499 
   1.2943801    8.0793364   -5.6379866    1.9410848   -3.6969018 
   1.2657846    8.2753173   -5.5947476    1.8982022   -3.6965454 
   1.2729573    8.2021836   -5.6056693    1.9089585   -3.6967108 
   1.3005423    8.0486811    -5.647215    1.9503257   -3.6968894 
   1.2984731    8.0512451    -5.644284    1.9472227   -3.6970613 
   1.2757922    8.1961337   -5.6099144    1.9132098   -3.6967045 
   1.2888112     8.112585   -5.6295413    1.9327335   -3.6968078 
   1.2793303    8.1837781   -5.6154075    1.9185157   -3.6968917 
Loop time of 13.2765 on 8 procs for 5000 steps with 4000 atoms

Performance: 65077.208 tau/day, 376.604 timesteps/s
54.5% CPU use with 8 MPI tasks x no OpenMP threads

MPI task timing breakdown:
Section |  min time  |  avg time  |  max time  |%varavg| %total
---------------------------------------------------------------
Pair    | 4.2115     | 4.5299     | 5.1709     |  14.8 | 34.12
Neigh   | 0.4125     | 0.45337    | 0.49771    |   4.4 |  3.41
Comm    | 7.4486     | 8.1614     | 8.5286     |  12.3 | 61.47
Output  | 0.038675   | 0.046717   | 0.059863   |   3.4 |  0.35
Modify  | 0.049855   | 0.059784   | 0.075487   |   3.8 |  0.45
Other   |            | 0.02533    |            |       |  0.19

Nlocal:    500 ave 507 max 490 min
Histogram: 1 0 1 0 2 0 0 1 0 3
Nghost:    2527.38 ave 2537 max 2517 min
Histogram: 1 0 0 1 2 0 2 1 0 1
Neighs:    36069.1 ave 37410 max 34875 min
Histogram: 1 2 1 0 1 0 0 0 1 2

Total # of neighbors = 288553
Ave neighs/atom = 72.1382
Neighbor list builds = 250
Dangerous builds not checked
Total wall time: 0:00:13
