LAMMPS (11 Aug 2017)
# 3d Lennard-Jones melt

units		lj
atom_style	atomic
boundary p p p

variable	xx equal ${size}
variable	xx equal 10
variable	yy equal ${size}
variable	yy equal 10
variable	zz equal ${size}
variable	zz equal 10


lattice		fcc ${rho}
lattice		fcc 0.881200
Lattice spacing in x,y,z = 1.65575 1.65575 1.65575
region		box block 0 ${xx} 0 ${yy} 0 ${zz}
region		box block 0 10 0 ${yy} 0 ${zz}
region		box block 0 10 0 10 0 ${zz}
region		box block 0 10 0 10 0 10
create_box	1 box
Created orthogonal box = (0 0 0) to (16.5575 16.5575 16.5575)
  2 by 2 by 2 MPI processor grid
create_atoms	1 box
Created 4000 atoms
mass		1 1.0 #39.948

velocity	all create ${T} 1 loop geom dist uniform#create temp seed
velocity	all create 3.080000 1 loop geom dist uniform
timestep    ${dt}
timestep    0.002000

pair_style	lj/cut 3.0
pair_coeff	1 1 1.0 1.0 3.0

neighbor	0.3 bin
neigh_modify	delay 0 every 20 check no

fix	1 all nve

thermo ${Dump}
thermo 50

thermo_style custom temp press pe ke etotal

#dump dump all custom ${Dump} dump.xyz id type x y z vx vy vz
run		${Run}
run		5000
Neighbor list info ...
  update every 20 steps, delay 0 steps, check no
  max neighbors/atom: 2000, page size: 100000
  master list distance cutoff = 3.3
  ghost atom cutoff = 3.3
  binsize = 1.65, bins = 11 11 11
  1 neighbor lists, perpetual/occasional/extra = 1 0 0
  (1) pair lj/cut, perpetual
      attributes: half, newton on
      pair build: half/bin/atomonly/newton
      stencil: half/bin/3d/newton
      bin: standard
Per MPI rank memory allocation (min/avg/max) = 2.643 | 2.643 | 2.643 Mbytes
Temp Press PotEng KinEng TotEng 
        3.08   -3.6301191   -7.2568005     4.618845   -2.6379555 
   1.6446731      6.46566    -5.135042    2.4663928   -2.6686492 
   1.6715322    6.2080219   -5.1774037    2.5066715   -2.6707322 
   1.6525342    6.3548988   -5.1500458    2.4781815   -2.6718643 
   1.6459181     6.369882   -5.1404209    2.4682599    -2.672161 
   1.6388521    6.4313894   -5.1298004    2.4576636   -2.6721368 
   1.6201557    6.5706045   -5.1023839    2.4296259    -2.672758 
   1.6119049    6.6667848   -5.0903477    2.4172529   -2.6730948 
   1.6323463    6.5272307   -5.1210308    2.4479073   -2.6731235 
   1.6051154    6.6820207   -5.0804043    2.4070711   -2.6733332 
   1.6032986    6.6976626   -5.0776654    2.4043467   -2.6733187 
   1.6145376    6.6383015     -5.09463    2.4212009   -2.6734291 
   1.6069831    6.6690644   -5.0833153     2.409872   -2.6734434 
   1.5959253    6.7511226   -5.0668595    2.3932894   -2.6735701 
    1.594363    6.7608626     -5.06446    2.3909466   -2.6735133 
   1.6150937    6.6352269   -5.0953724    2.4220349   -2.6733375 
   1.5937405    6.7741992   -5.0634447    2.3900131   -2.6734316 
   1.6143965    6.6218173   -5.0941722    2.4209893   -2.6731829 
   1.6129559    6.6818017   -5.0922875     2.418829   -2.6734585 
   1.5994422    6.7338992   -5.0718855    2.3985635   -2.6733221 
   1.6233813    6.5853913    -5.107878    2.4344632   -2.6734148 
   1.5865472    6.7815403    -5.052695    2.3792259   -2.6734691 
   1.5826735    6.8677116   -5.0469405    2.3734168   -2.6735237 
   1.6275305    6.5489235   -5.1142849    2.4406854   -2.6735995 
   1.5993339    6.7371463   -5.0719784    2.3984011   -2.6735773 
   1.5868738    6.7952085   -5.0531595    2.3797156    -2.673444 
    1.622787    6.5506007   -5.1070122     2.433572   -2.6734402 
   1.6084446    6.6378153   -5.0852254    2.4120637   -2.6731617 
   1.6148641     6.602154   -5.0947783    2.4216905   -2.6730878 
   1.6168451    6.6172954   -5.0979248    2.4246614   -2.6732634 
   1.5891476    6.7869818   -5.0566159    2.3831255   -2.6734905 
   1.6140312    6.6081012   -5.0935579    2.4204416   -2.6731163 
   1.5947202    6.7396527   -5.0646059    2.3914823   -2.6731236 
   1.6045796    6.6656033   -5.0793932    2.4062677   -2.6731255 
   1.5959465    6.7614272    -5.066694    2.3933213   -2.6733727 
   1.6293453    6.5884215   -5.1167699     2.443407   -2.6733629 
   1.5950989    6.7918746   -5.0653879    2.3920502   -2.6733377 
   1.6097647    6.6500938   -5.0869989    2.4140434   -2.6729556 
   1.5995145      6.70198    -5.071961     2.398672    -2.673289 
    1.617262    6.5975583   -5.0985523    2.4252866   -2.6732658 
   1.6220435    6.5802691   -5.1057315     2.432457   -2.6732745 
    1.602364    6.7222698   -5.0760106    2.4029452   -2.6730654 
   1.6090907    6.6723538   -5.0861595    2.4130327   -2.6731268 
   1.6186037    6.5900978   -5.1003973    2.4272986   -2.6730986 
   1.6050825    6.7091198   -5.0800184    2.4070219   -2.6729965 
   1.6136437    6.6122784    -5.093093    2.4198605   -2.6732325 
   1.6135704      6.62255   -5.0929288    2.4197505   -2.6731782 
   1.5925875    6.7608231   -5.0615173     2.388284   -2.6732333 
   1.6033958    6.7224707   -5.0778272    2.4044925   -2.6733347 
   1.6143226    6.6816379   -5.0947338    2.4208785   -2.6738553 
   1.6141231    6.6601335   -5.0940992    2.4205794   -2.6735198 
   1.6019642    6.7270616   -5.0758515    2.4023456   -2.6735059 
   1.6092013    6.6574714   -5.0870696    2.4131985   -2.6738711 
   1.6060221    6.6643634   -5.0818017    2.4084309   -2.6733708 
   1.6069105    6.7106723   -5.0830725    2.4097631   -2.6733094 
   1.6164097    6.5929455   -5.0973155    2.4240084   -2.6733072 
    1.615988    6.6292279   -5.0967628     2.423376   -2.6733868 
   1.5931633    6.7577538   -5.0625119    2.3891475   -2.6733643 
   1.6075073    6.6449595   -5.0838624    2.4106581   -2.6732043 
   1.6270901    6.5434185   -5.1137516     2.440025   -2.6737266 
   1.5862746     6.816515   -5.0525743    2.3788171   -2.6737572 
   1.6194638    6.6157437   -5.1022811    2.4285883   -2.6736928 
   1.6045107    6.7052951   -5.0797345    2.4061644   -2.6735701 
   1.5916743    6.8048726   -5.0603024    2.3869146   -2.6733879 
   1.6230047    6.5610923   -5.1072932    2.4338984   -2.6733948 
   1.6220143    6.6166387   -5.1058412    2.4324132    -2.673428 
   1.6082229    6.7185731   -5.0854321    2.4117312   -2.6737009 
   1.6101958    6.6631385   -5.0881939    2.4146898    -2.673504 
    1.600415    6.6815139   -5.0734302    2.4000223   -2.6734079 
   1.6168901    6.6046879   -5.0979531    2.4247289   -2.6732242 
   1.5944879    6.7450147   -5.0645794    2.3911339   -2.6734454 
   1.5982674    6.7355646   -5.0702077    2.3968017    -2.673406 
    1.599083    6.7182253   -5.0711846    2.3980248   -2.6731598 
   1.6196734    6.5696753   -5.1018779    2.4289027   -2.6729752 
    1.616408    6.6286039    -5.097321    2.4240059   -2.6733151 
   1.6139888    6.6495247   -5.0938296     2.420378   -2.6734516 
   1.6021605    6.6723697   -5.0759304    2.4026399   -2.6732904 
   1.6187691    6.5660377    -5.100653    2.4275466   -2.6731064 
   1.6396006     6.443706   -5.1316875     2.458786   -2.6729015 
    1.589259    6.7733294   -5.0564483    2.3832925   -2.6731558 
   1.6275755    6.5559986   -5.1139874    2.4407529   -2.6732345 
   1.6079315    6.6738106   -5.0845672    2.4112943   -2.6732729 
   1.6042878    6.6463189    -5.079116    2.4058301   -2.6732859 
    1.608017    6.6584861   -5.0844855    2.4114226    -2.673063 
   1.5925297    6.7636939   -5.0613378    2.3881973   -2.6731405 
   1.6219203    6.5965342   -5.1055242    2.4322723   -2.6732519 
   1.5921733    6.7723275   -5.0606534    2.3876628   -2.6729905 
   1.5950504    6.7837892   -5.0651844    2.3919775    -2.673207 
   1.6330799    6.5520502    -5.122456    2.4490075   -2.6734485 
    1.618991    6.6225974   -5.1012398    2.4278794   -2.6733604 
   1.6105552    6.6490994    -5.088042    2.4152288   -2.6728132 
   1.6053232    6.6730058   -5.0805928    2.4073828     -2.67321 
   1.6092616    6.6836077   -5.0867094    2.4132889   -2.6734205 
   1.6197808    6.6235211   -5.1025323    2.4290638   -2.6734685 
   1.6004212    6.7280306   -5.0734885    2.4000317   -2.6734569 
   1.6155939    6.6244964   -5.0962198    2.4227851   -2.6734347 
   1.6083488    6.6690787   -5.0853054      2.41192   -2.6733854 
   1.6260213    6.5755156   -5.1116681    2.4384222   -2.6732459 
   1.6032997    6.7258373   -5.0777078    2.4043484   -2.6733595 
   1.5952419    6.7567969   -5.0653366    2.3922647    -2.673072 
   1.6161693    6.6287883   -5.0970634    2.4236478   -2.6734156 
Loop time of 6.03832 on 8 procs for 5000 steps with 4000 atoms

Performance: 143086.185 tau/day, 828.045 timesteps/s
79.0% CPU use with 8 MPI tasks x no OpenMP threads

MPI task timing breakdown:
Section |  min time  |  avg time  |  max time  |%varavg| %total
---------------------------------------------------------------
Pair    | 3.5649     | 3.6329     | 3.6923     |   2.4 | 60.16
Neigh   | 0.32543    | 0.33572    | 0.34061    |   0.9 |  5.56
Comm    | 1.9299     | 2.0035     | 2.0744     |   3.6 | 33.18
Output  | 0.0032647  | 0.0059933  | 0.014232   |   4.6 |  0.10
Modify  | 0.040903   | 0.041973   | 0.04472    |   0.5 |  0.70
Other   |            | 0.01824    |            |       |  0.30

Nlocal:    500 ave 511 max 486 min
Histogram: 1 0 0 1 0 2 2 0 1 1
Nghost:    2399 ave 2425 max 2375 min
Histogram: 1 1 0 1 1 2 0 0 1 1
Neighs:    33114.5 ave 33968 max 31904 min
Histogram: 1 0 0 0 2 1 1 1 1 1

Total # of neighbors = 264916
Ave neighs/atom = 66.229
Neighbor list builds = 250
Dangerous builds not checked
Total wall time: 0:00:06
