LAMMPS (11 Aug 2017)
# 3d Lennard-Jones melt

units		lj
atom_style	atomic
boundary p p p

variable	xx equal ${size}
variable	xx equal 10
variable	yy equal ${size}
variable	yy equal 10
variable	zz equal ${size}
variable	zz equal 10


lattice		fcc ${rho}
lattice		fcc 0.564400
Lattice spacing in x,y,z = 1.92084 1.92084 1.92084
region		box block 0 ${xx} 0 ${yy} 0 ${zz}
region		box block 0 10 0 ${yy} 0 ${zz}
region		box block 0 10 0 10 0 ${zz}
region		box block 0 10 0 10 0 10
create_box	1 box
Created orthogonal box = (0 0 0) to (19.2084 19.2084 19.2084)
  2 by 2 by 2 MPI processor grid
create_atoms	1 box
Created 4000 atoms
mass		1 1.0 #39.948

velocity	all create ${T} 1 loop geom dist uniform#create temp seed
velocity	all create 1.220000 1 loop geom dist uniform
timestep    ${dt}
timestep    0.002000

pair_style	lj/cut 3.0
pair_coeff	1 1 1.0 1.0 3.0

neighbor	0.3 bin
neigh_modify	delay 0 every 20 check no

fix	1 all nve

thermo ${Dump}
thermo 50

thermo_style custom temp press pe ke etotal

#dump dump all custom ${Dump} dump.xyz id type x y z vx vy vz
run		${Run}
run		5000
Neighbor list info ...
  update every 20 steps, delay 0 steps, check no
  max neighbors/atom: 2000, page size: 100000
  master list distance cutoff = 3.3
  ghost atom cutoff = 3.3
  binsize = 1.65, bins = 12 12 12
  1 neighbor lists, perpetual/occasional/extra = 1 0 0
  (1) pair lj/cut, perpetual
      attributes: half, newton on
      pair build: half/bin/atomonly/newton
      stencil: half/bin/3d/newton
      bin: standard
Per MPI rank memory allocation (min/avg/max) = 2.645 | 2.645 | 2.645 Mbytes
Temp Press PotEng KinEng TotEng 
        1.22   -2.8938957   -3.7889497    1.8295425   -1.9594072 
   1.2075476   -1.7460395   -3.7951445    1.8108685   -1.9842759 
   1.0607841   0.10417518   -3.5746825    1.5907784   -1.9839041 
   1.1212222  0.095473394   -3.6652181    1.6814128   -1.9838053 
   1.1326493   0.12815473   -3.6822844    1.6985492   -1.9837352 
   1.1360557   0.16377087   -3.6872223    1.7036576   -1.9835647 
   1.1476995   0.13589917   -3.7048593    1.7211188   -1.9837405 
   1.1469796   0.13197993   -3.7036993    1.7200393     -1.98366 
   1.1506813   0.11516588   -3.7092628    1.7255905   -1.9836723 
   1.1365974   0.15496787   -3.6882904    1.7044699   -1.9838205 
   1.1405343   0.13925522   -3.6943983    1.7103738   -1.9840245 
   1.1354353   0.16953664    -3.686634    1.7027272   -1.9839067 
   1.1600264  0.051355293    -3.723403    1.7396045   -1.9837984 
   1.1448687   0.12971182   -3.7008488    1.7168737    -1.983975 
   1.1471963   0.16643458   -3.7044828    1.7203643   -1.9841186 
   1.1321629   0.23574782   -3.6819353    1.6978198   -1.9841156 
   1.1518307   0.13645847   -3.7111258    1.7273142   -1.9838116 
   1.1583712  0.075008967   -3.7210471    1.7371224   -1.9839247 
   1.1508848   0.10963699   -3.7097765    1.7258957   -1.9838808 
   1.1466528    0.1364625   -3.7033104    1.7195492   -1.9837612 
   1.1521016   0.12923184   -3.7115267    1.7277203   -1.9838064 
   1.1450709   0.17791611   -3.7012625     1.717177   -1.9840855 
   1.1474045   0.19031253    -3.704829    1.7206765   -1.9841525 
   1.1656351   0.11284388   -3.7320608    1.7480156   -1.9840452 
   1.1523732   0.17305766   -3.7121537    1.7281277    -1.984026 
   1.1470909   0.20614575   -3.7043079    1.7202062   -1.9841017 
   1.1683862   0.09529602    -3.736202    1.7521411   -1.9840609 
   1.1490332   0.18736683   -3.7072919    1.7231188   -1.9841731 
   1.1437091   0.20332723    -3.699367    1.7151347   -1.9842322 
    1.140928   0.20694198   -3.6952193    1.7109641   -1.9842551 
   1.1525802   0.16202243     -3.71274     1.728438    -1.984302 
   1.1533708   0.20491764   -3.7139044    1.7296238   -1.9842806 
   1.1582547   0.19410378   -3.7210969    1.7369477   -1.9841492 
   1.1512528   0.22876319   -3.7109554    1.7264474   -1.9845079 
   1.1631516   0.16100152    -3.728745    1.7442912   -1.9844538 
   1.1525892   0.22236465   -3.7128284    1.7284516   -1.9843768 
   1.1589415    0.2075757   -3.7224555    1.7379776   -1.9844779 
   1.1580699   0.22421866    -3.721055    1.7366706   -1.9843844 
    1.166829   0.18875048   -3.7340468     1.749806   -1.9842408 
    1.168663   0.16813482   -3.7368078    1.7525563   -1.9842515 
   1.1696824   0.15382669   -3.7385207    1.7540849   -1.9844358 
    1.165306   0.16477885   -3.7319378    1.7475219   -1.9844159 
   1.1594281   0.19831255   -3.7229275    1.7387074   -1.9842202 
   1.1525472     0.195274   -3.7127032    1.7283885   -1.9843147 
    1.160169   0.10716572   -3.7240448    1.7398184   -1.9842264 
   1.1570255   0.13592465   -3.7193242    1.7351044   -1.9842198 
   1.1582458   0.16917777   -3.7211087    1.7369344   -1.9841743 
   1.1466485   0.24815617   -3.7036765    1.7195427   -1.9841338 
    1.148831   0.26877695   -3.7072108    1.7228158    -1.984395 
   1.1508762   0.24700165   -3.7101833    1.7258828   -1.9843005 
   1.1593352   0.21150331   -3.7227239     1.738568   -1.9841559 
   1.1619204   0.20880712   -3.7267248    1.7424448     -1.98428 
   1.1491497   0.26385077   -3.7072067    1.7232936   -1.9839131 
   1.1588198   0.19032925   -3.7219729    1.7377952   -1.9841777 
   1.1548122   0.21176582   -3.7159001    1.7317853   -1.9841148 
   1.1486276    0.2494433   -3.7066687    1.7225106   -1.9841581 
   1.1601268   0.20823193   -3.7239058    1.7397552   -1.9841506 
   1.1602508   0.21332667   -3.7238422    1.7399412    -1.983901 
   1.1537164   0.25461498   -3.7144069     1.730142   -1.9842649 
    1.154594   0.26135649   -3.7156324     1.731458   -1.9841744 
    1.147556   0.25124463   -3.7051954    1.7209037   -1.9842917 
   1.1589604   0.18285107   -3.7222549     1.738006   -1.9842489 
   1.1610616   0.19928655   -3.7253327    1.7411569   -1.9841758 
   1.1529004   0.24855448   -3.7132148    1.7289182   -1.9842966 
   1.1708133   0.16736845   -3.7399876    1.7557808   -1.9842068 
   1.1519105   0.26496814   -3.7115862    1.7274337   -1.9841525 
   1.1543571   0.23104262    -3.715319    1.7311028   -1.9842161 
   1.1567979   0.23407503   -3.7193655    1.7347631   -1.9846025 
   1.1572093   0.22706503   -3.7198274    1.7353799   -1.9844475 
   1.1520801   0.24642252   -3.7121418    1.7276881   -1.9844537 
   1.1699352   0.15972769    -3.738799     1.754464    -1.984335 
   1.1591384   0.21705105   -3.7228135     1.738273   -1.9845405 
    1.158695   0.19825485   -3.7219878     1.737608   -1.9843798 
   1.1676054   0.13850347   -3.7353994    1.7509703   -1.9844291 
   1.1618277   0.17739839   -3.7266668    1.7423059    -1.984361 
   1.1504127   0.26592447   -3.7094146    1.7251876    -1.984227 
    1.167641   0.20887309   -3.7354701    1.7510236   -1.9844465 
   1.1712859   0.20048604   -3.7407414    1.7564896   -1.9842518 
   1.1624493   0.21116923    -3.727378     1.743238     -1.98414 
   1.1631854   0.18076267   -3.7285095    1.7443419   -1.9841676 
   1.1564489    0.1776951   -3.7187669    1.7342397   -1.9845272 
   1.1589206   0.15743242   -3.7221773    1.7379463    -1.984231 
    1.156835   0.16034501   -3.7189909    1.7348186   -1.9841722 
   1.1615754   0.13892024   -3.7259808    1.7419275   -1.9840533 
   1.1638249   0.12961772   -3.7295137    1.7453009   -1.9842128 
   1.1420235   0.22370102   -3.6968031     1.712607   -1.9841961 
   1.1599781   0.16474978   -3.7239202    1.7395322    -1.984388 
   1.1618816   0.17722351   -3.7269187    1.7423867    -1.984532 
   1.1615622   0.18616967   -3.7263528    1.7419077   -1.9844451 
   1.1620752   0.18131341   -3.7268339     1.742677   -1.9841568 
    1.150188   0.24881491   -3.7091693    1.7248506   -1.9843187 
   1.1614756    0.2017225   -3.7258163    1.7417779   -1.9840383 
   1.1581487   0.22147215   -3.7210064    1.7367887   -1.9842177 
   1.1685254   0.19348595   -3.7364123      1.75235   -1.9840624 
   1.1597586   0.27713653   -3.7235794     1.739203   -1.9843764 
    1.164817   0.26153716   -3.7312043    1.7467886   -1.9844156 
   1.1648533   0.21216464   -3.7313014    1.7468432   -1.9844582 
   1.1666485   0.16021384   -3.7339421    1.7495353   -1.9844068 
   1.1633511   0.17613774   -3.7287732    1.7445904   -1.9841828 
   1.1528997   0.21133686   -3.7132675    1.7289172   -1.9843503 
   1.1555645   0.21381876   -3.7172582    1.7329134   -1.9843448 
Loop time of 4.00389 on 8 procs for 5000 steps with 4000 atoms

Performance: 215789.919 tau/day, 1248.784 timesteps/s
79.9% CPU use with 8 MPI tasks x no OpenMP threads

MPI task timing breakdown:
Section |  min time  |  avg time  |  max time  |%varavg| %total
---------------------------------------------------------------
Pair    | 2.1756     | 2.3157     | 2.4047     |   4.7 | 57.84
Neigh   | 0.2563     | 0.26681    | 0.27709    |   1.1 |  6.66
Comm    | 1.271      | 1.3633     | 1.5084     |   6.4 | 34.05
Output  | 0.0026999  | 0.0035871  | 0.0085034  |   3.1 |  0.09
Modify  | 0.039675   | 0.040433   | 0.041958   |   0.3 |  1.01
Other   |            | 0.01403    |            |       |  0.35

Nlocal:    500 ave 524 max 481 min
Histogram: 2 0 1 0 1 2 1 0 0 1
Nghost:    1902.38 ave 1917 max 1883 min
Histogram: 1 1 1 0 1 0 0 0 1 3
Neighs:    21105.5 ave 22774 max 19929 min
Histogram: 1 2 1 0 1 0 2 0 0 1

Total # of neighbors = 168844
Ave neighs/atom = 42.211
Neighbor list builds = 250
Dangerous builds not checked
Total wall time: 0:00:04
