LAMMPS (11 Aug 2017)
# 3d Lennard-Jones melt

units		lj
atom_style	atomic
boundary p p p

variable	xx equal ${size}
variable	xx equal 10
variable	yy equal ${size}
variable	yy equal 10
variable	zz equal ${size}
variable	zz equal 10


lattice		fcc ${rho}
lattice		fcc 0.782200
Lattice spacing in x,y,z = 1.72285 1.72285 1.72285
region		box block 0 ${xx} 0 ${yy} 0 ${zz}
region		box block 0 10 0 ${yy} 0 ${zz}
region		box block 0 10 0 10 0 ${zz}
region		box block 0 10 0 10 0 10
create_box	1 box
Created orthogonal box = (0 0 0) to (17.2285 17.2285 17.2285)
  2 by 2 by 2 MPI processor grid
create_atoms	1 box
Created 4000 atoms
mass		1 1.0 #39.948

velocity	all create ${T} 1 loop geom dist uniform#create temp seed
velocity	all create 0.980000 1 loop geom dist uniform
timestep    ${dt}
timestep    0.002000

pair_style	lj/cut 3.0
pair_coeff	1 1 1.0 1.0 3.0

neighbor	0.3 bin
neigh_modify	delay 0 every 20 check no

fix	1 all nve

thermo ${Dump}
thermo 50

thermo_style custom temp press pe ke etotal

#dump dump all custom ${Dump} dump.xyz id type x y z vx vy vz
run		${Run}
run		5000
Neighbor list info ...
  update every 20 steps, delay 0 steps, check no
  max neighbors/atom: 2000, page size: 100000
  master list distance cutoff = 3.3
  ghost atom cutoff = 3.3
  binsize = 1.65, bins = 11 11 11
  1 neighbor lists, perpetual/occasional/extra = 1 0 0
  (1) pair lj/cut, perpetual
      attributes: half, newton on
      pair build: half/bin/atomonly/newton
      stencil: half/bin/3d/newton
      bin: standard
Per MPI rank memory allocation (min/avg/max) = 2.643 | 2.643 | 2.643 Mbytes
Temp Press PotEng KinEng TotEng 
        0.98    -5.582504   -6.3289841    1.4696325   -4.8593516 
  0.49094948   -1.7323451   -5.5891128   0.73624011   -4.8528726 
  0.54528393   -1.7356785   -5.6747173   0.81772141   -4.8569958 
  0.53384975   -1.6637541   -5.6591949   0.80057443   -4.8586205 
  0.53139002   -1.6556645    -5.656023   0.79688576   -4.8591372 
  0.53350441    -1.688734   -5.6595682   0.80005655   -4.8595117 
  0.54273396   -1.7165548   -5.6736389   0.81389742   -4.8597415 
  0.53590528   -1.6291176   -5.6633849   0.80365696    -4.859728 
  0.53399193   -1.6061498   -5.6607728   0.80078765   -4.8599851 
  0.53652334   -1.6134627   -5.6647342   0.80458382   -4.8601503 
  0.53525628   -1.5930844   -5.6627977   0.80268369    -4.860114 
   0.5311856   -1.5756641   -5.6567493   0.79657921   -4.8601701 
  0.53565779   -1.5868543   -5.6638384   0.80328582   -4.8605526 
  0.52972984    -1.517321   -5.6547221   0.79439611    -4.860326 
  0.53475475   -1.5259356   -5.6625229   0.80193159   -4.8605913 
  0.52809399   -1.4705799   -5.6528542   0.79194295   -4.8609112 
  0.53138218   -1.4858887   -5.6577217     0.796874   -4.8608477 
   0.5235554   -1.4295551   -5.6459477   0.78513677   -4.8608109 
  0.52626992   -1.4518805    -5.650171   0.78920752   -4.8609635 
  0.52378121   -1.4429771   -5.6466296    0.7854754   -4.8611542 
  0.52289521   -1.4089036   -5.6453867   0.78414673   -4.8612399 
  0.52152042   -1.3765066   -5.6436799   0.78208506   -4.8615949 
  0.52101042   -1.3909498   -5.6427266   0.78132025   -4.8614064 
   0.5220201   -1.3987695   -5.6442339   0.78283439   -4.8613995 
  0.51951707   -1.3611892   -5.6405263   0.77908078   -4.8614455 
  0.53125084    -1.422138   -5.6580744   0.79667705   -4.8613973 
  0.52017465   -1.3451978   -5.6415921   0.78006691   -4.8615251 
  0.52271501   -1.3617907   -5.6455133    0.7838765   -4.8616368 
  0.51459325   -1.3277567   -5.6332919    0.7716969    -4.861595 
  0.51220377   -1.3190342   -5.6297288   0.76811358   -4.8616152 
  0.51624672   -1.3346242   -5.6358759   0.77417648   -4.8616994 
  0.51720858   -1.3386896   -5.6376167   0.77561892   -4.8619977 
  0.51203746   -1.3075999   -5.6296043   0.76786417   -4.8617401 
  0.51577335   -1.3328339   -5.6351691   0.77346661   -4.8617025 
  0.50929265   -1.2905412   -5.6254263   0.76374799   -4.8616783 
  0.50901167   -1.2712456    -5.625147   0.76332662   -4.8618203 
  0.51241407   -1.2504023   -5.6303453   0.76842895   -4.8619164 
  0.51301572   -1.2545211   -5.6311686   0.76933119   -4.8618374 
  0.51422252   -1.2712323   -5.6332107   0.77114095   -4.8620697 
  0.52310144   -1.3617912   -5.6465757     0.784456   -4.8621197 
  0.51295916   -1.3139819   -5.6312261   0.76924638   -4.8619798 
  0.51999241   -1.3323377   -5.6415816   0.77979362    -4.861788 
  0.51750846   -1.3123245   -5.6378573   0.77606862   -4.8617887 
   0.5048667   -1.2450294   -5.6188394   0.75711073   -4.8617287 
  0.51254176   -1.2961162   -5.6304364   0.76862043   -4.8618159 
  0.51407542   -1.2941859   -5.6330385   0.77092035   -4.8621182 
  0.51750482   -1.3036831   -5.6380492   0.77606316   -4.8619861 
  0.51009351   -1.2458996   -5.6268744   0.76494898   -4.8619254 
  0.51717052   -1.2874876   -5.6375352   0.77556185   -4.8619733 
  0.52013785   -1.3138798   -5.6420106   0.78001173   -4.8619989 
  0.51425081   -1.2748109    -5.633248   0.77118337   -4.8620646 
  0.51457133   -1.2711834   -5.6336853   0.77166403   -4.8620213 
   0.5188695   -1.3196122   -5.6401433   0.77810968   -4.8620336 
  0.50850269   -1.2520729   -5.6247558   0.76256335   -4.8621924 
  0.51664464   -1.2888292   -5.6367452   0.77477321    -4.861972 
  0.51533371   -1.2942916   -5.6347889   0.77280731   -4.8619816 
  0.51411882   -1.2974821   -5.6330189   0.77098544   -4.8620335 
  0.52283209   -1.3228859   -5.6461815   0.78405208   -4.8621294 
  0.51906008   -1.2853367    -5.640719   0.77839547   -4.8623236 
  0.52051597   -1.2727542   -5.6429302   0.78057876   -4.8623514 
  0.50884932   -1.1926052   -5.6253962   0.76308317    -4.862313 
  0.50923203    -1.206172   -5.6259362   0.76365709   -4.8622791 
  0.51961198   -1.2750778   -5.6416027   0.77922311   -4.8623796 
  0.51822636   -1.2894594   -5.6392655    0.7771452   -4.8621203 
  0.52007144   -1.3142259   -5.6423751   0.77991213    -4.862463 
  0.50899057   -1.2331261   -5.6256234   0.76329498   -4.8623284 
  0.50756472   -1.2217924   -5.6232173   0.76115674   -4.8620606 
  0.51635877   -1.2659177   -5.6366854   0.77434453   -4.8623408 
  0.51707676   -1.2716975   -5.6377658   0.77542123   -4.8623445 
  0.51853891   -1.2723519   -5.6399074   0.77761392   -4.8622935 
  0.50780524   -1.2122423   -5.6238011   0.76151744   -4.8622836 
  0.51727097   -1.2532832   -5.6381406   0.77571248   -4.8624281 
  0.51854103   -1.2513764   -5.6401061   0.77761709    -4.862489 
  0.51914133   -1.2775573   -5.6410799   0.77851732   -4.8625626 
  0.52707143   -1.3477571   -5.6529852   0.79040949   -4.8625757 
  0.51563581   -1.2826908   -5.6354281   0.77326035   -4.8621678 
  0.50951996   -1.2330993   -5.6264085   0.76408888   -4.8623197 
  0.51629462   -1.2521957   -5.6367074   0.77424833   -4.8624591 
  0.51770986    -1.281723   -5.6387376   0.77637065    -4.862367 
  0.51918326   -1.2811904   -5.6407551   0.77858019   -4.8621749 
  0.51770556   -1.2592362   -5.6383522   0.77636421    -4.861988 
  0.52044897   -1.2616077   -5.6424142   0.78047828   -4.8619359 
    0.523576   -1.3099983   -5.6473606   0.78516766    -4.862193 
  0.52060422   -1.2845125   -5.6428841   0.78071111   -4.8621729 
   0.5070123   -1.2065074   -5.6225386   0.76032832   -4.8622103 
  0.52240305   -1.3176254   -5.6454684   0.78340867   -4.8620597 
  0.51031534   -1.2322941   -5.6273511   0.76528164   -4.8620694 
  0.51117442   -1.2372572   -5.6289493   0.76656995   -4.8623794 
  0.51877908   -1.3030589   -5.6402876   0.77797408   -4.8623136 
  0.52099253   -1.3357809   -5.6436371   0.78129342   -4.8623437 
  0.50924832   -1.2527221   -5.6259412   0.76368152   -4.8622597 
  0.51806539   -1.3239026   -5.6390757    0.7769038   -4.8621719 
  0.51373147   -1.2932635   -5.6326192   0.77040455   -4.8622147 
  0.51956567    -1.324459   -5.6413447   0.77915367    -4.862191 
  0.51557331   -1.2820001   -5.6351785   0.77316663   -4.8620119 
  0.51322311   -1.2784285   -5.6318559    0.7696422   -4.8622137 
  0.51869994   -1.3215564   -5.6399357   0.77785539   -4.8620803 
  0.50406154   -1.2388914   -5.6178612   0.75590329   -4.8619579 
  0.51528578   -1.3153811   -5.6346059   0.77273544   -4.8618704 
   0.5120898   -1.2923198   -5.6297679   0.76794267   -4.8618253 
  0.51840913   -1.3105175   -5.6393247   0.77741929   -4.8619054 
Loop time of 4.91502 on 8 procs for 5000 steps with 4000 atoms

Performance: 175787.667 tau/day, 1017.290 timesteps/s
83.9% CPU use with 8 MPI tasks x no OpenMP threads

MPI task timing breakdown:
Section |  min time  |  avg time  |  max time  |%varavg| %total
---------------------------------------------------------------
Pair    | 3.0752     | 3.1692     | 3.2529     |   3.3 | 64.48
Neigh   | 0.3113     | 0.32601    | 0.36297    |   2.7 |  6.63
Comm    | 1.2682     | 1.3572     | 1.4679     |   5.5 | 27.61
Output  | 0.00248    | 0.0040246  | 0.014575   |   6.3 |  0.08
Modify  | 0.039663   | 0.041312   | 0.043059   |   0.5 |  0.84
Other   |            | 0.01728    |            |       |  0.35

Nlocal:    500 ave 518 max 489 min
Histogram: 2 0 1 2 1 0 1 0 0 1
Nghost:    2261.38 ave 2273 max 2243 min
Histogram: 1 0 0 1 0 1 1 2 1 1
Neighs:    29539.1 ave 30531 max 28527 min
Histogram: 1 1 0 1 1 2 0 0 0 2

Total # of neighbors = 236313
Ave neighs/atom = 59.0782
Neighbor list builds = 250
Dangerous builds not checked
Total wall time: 0:00:04
