LAMMPS (11 Aug 2017)
# 3d Lennard-Jones melt

units		lj
atom_style	atomic
boundary p p p

variable	xx equal ${size}
variable	xx equal 10
variable	yy equal ${size}
variable	yy equal 10
variable	zz equal ${size}
variable	zz equal 10


lattice		fcc ${rho}
lattice		fcc 0.109000
Lattice spacing in x,y,z = 3.32311 3.32311 3.32311
region		box block 0 ${xx} 0 ${yy} 0 ${zz}
region		box block 0 10 0 ${yy} 0 ${zz}
region		box block 0 10 0 10 0 ${zz}
region		box block 0 10 0 10 0 10
create_box	1 box
Created orthogonal box = (0 0 0) to (33.2311 33.2311 33.2311)
  2 by 2 by 2 MPI processor grid
create_atoms	1 box
Created 4000 atoms
mass		1 1.0 #39.948

velocity	all create ${T} 1 loop geom dist uniform#create temp seed
velocity	all create 3.020000 1 loop geom dist uniform
timestep    ${dt}
timestep    0.002000

pair_style	lj/cut 3.0
pair_coeff	1 1 1.0 1.0 3.0

neighbor	0.3 bin
neigh_modify	delay 0 every 20 check no

fix	1 all nve

thermo ${Dump}
thermo 50

thermo_style custom temp press pe ke etotal

#dump dump all custom ${Dump} dump.xyz id type x y z vx vy vz
run		${Run}
run		5000
Neighbor list info ...
  update every 20 steps, delay 0 steps, check no
  max neighbors/atom: 2000, page size: 100000
  master list distance cutoff = 3.3
  ghost atom cutoff = 3.3
  binsize = 1.65, bins = 21 21 21
  1 neighbor lists, perpetual/occasional/extra = 1 0 0
  (1) pair lj/cut, perpetual
      attributes: half, newton on
      pair build: half/bin/atomonly/newton
      stencil: half/bin/3d/newton
      bin: standard
Per MPI rank memory allocation (min/avg/max) = 2.587 | 2.587 | 2.587 Mbytes
Temp Press PotEng KinEng TotEng 
        3.02   0.29838628  -0.14172505    4.5288675    4.3871424 
   3.0377611   0.29443006  -0.16979368    4.5555026    4.3857089 
   3.1168504   0.29434433   -0.2869265    4.6741068    4.3871803 
   3.1198809   0.42380262  -0.28991472    4.6786513    4.3887366 
   3.2340435   0.38734765  -0.46069215    4.8498525    4.3891603 
   3.2769378   0.37013927  -0.52534718    4.9141778    4.3888306 
   3.2729653   0.38689627  -0.52001967    4.9082207     4.388201 
   3.2902263   0.36603478  -0.54611131    4.9341056    4.3879943 
   3.2827332   0.37071128   -0.5351053    4.9228688    4.3877635 
   3.2864847    0.3722948  -0.54081322    4.9284946    4.3876814 
   3.2952906   0.37171158  -0.55417357    4.9417001    4.3875265 
   3.2901744   0.37586262  -0.54647106    4.9340278    4.3875568 
   3.2840766   0.38164157  -0.53743819    4.9248834    4.3874452 
   3.2995586   0.36776319  -0.56092451    4.9481006    4.3871761 
   3.2955401   0.37248541  -0.55475623    4.9420744    4.3873181 
   3.3095629   0.36170158  -0.57585039    4.9631033    4.3872529 
   3.2949739   0.37437843  -0.55416092    4.9412252    4.3870643 
   3.3015438     0.368263  -0.56402057    4.9510776     4.387057 
   3.3090521   0.36619199  -0.57522986    4.9623373    4.3871074 
   3.3044219   0.37990015  -0.56845857    4.9553937    4.3869351 
    3.303237    0.3841984  -0.56657997    4.9536168    4.3870369 
   3.3099601   0.37684025   -0.5765815    4.9636989    4.3871174 
   3.3067383   0.37909132  -0.57184488    4.9588674    4.3870225 
   3.3184999   0.36428075  -0.58961516    4.9765054    4.3868902 
   3.3081577   0.37244783  -0.57404659     4.960996    4.3869494 
   3.2996508    0.3869051   -0.5612665    4.9482389    4.3869724 
    3.317376   0.36704414  -0.58788821      4.97482    4.3869318 
   3.3118524   0.37158371  -0.57977818    4.9665367    4.3867585 
   3.3212785   0.36724726  -0.59404732    4.9806723    4.3866249 
   3.3103137   0.37830411  -0.57765191    4.9642292    4.3865773 
   3.3152522   0.37646069  -0.58506972    4.9716352    4.3865654 
   3.3159702   0.37796975  -0.58602231    4.9727118    4.3866895 
   3.3219479   0.37202414  -0.59497303    4.9816762    4.3867032 
   3.3162583   0.37550975  -0.58639755    4.9731438    4.3867462 
     3.31453   0.37412351  -0.58386063     4.970552    4.3866914 
   3.3146485   0.37522433  -0.58411902    4.9707297    4.3866107 
    3.320795   0.37186256  -0.59332296    4.9799472    4.3866242 
   3.3093225   0.37991415  -0.57602835    4.9627427    4.3867144 
   3.3223291   0.37721022  -0.59554072    4.9822477     4.386707 
   3.3288033   0.36939286  -0.60535358    4.9919567    4.3866031 
   3.2986128   0.39423815  -0.56017335    4.9466823    4.3865089 
   3.3246641    0.3708697  -0.59925472    4.9857494    4.3864947 
   3.3327255   0.36227303  -0.61137525    4.9978385    4.3864632 
   3.3311011   0.36860301   -0.6088043    4.9954026    4.3865983 
   3.3333832   0.37255979  -0.61227403    4.9988248    4.3865508 
   3.3183293   0.39163854  -0.58957232    4.9762496    4.3866773 
   3.3194942   0.37950062  -0.59129918    4.9779965    4.3866973 
   3.3270658   0.36847157   -0.6027045    4.9893511    4.3866466 
    3.317961   0.37690249   -0.5890544    4.9756973    4.3866429 
   3.3092686   0.38643432  -0.57603169    4.9626619    4.3866303 
    3.324242   0.37670569  -0.59831604    4.9851164    4.3868003 
   3.3244819   0.37592568   -0.5986109    4.9854762    4.3868653 
   3.3236288   0.37315184  -0.59720132    4.9841968    4.3869955 
   3.3210416   0.37066481  -0.59329863     4.980317    4.3870183 
   3.3222387   0.36332536  -0.59513082    4.9821122    4.3869814 
   3.3095798   0.37797226  -0.57640257    4.9631287    4.3867261 
   3.3110931   0.37717367  -0.57865931     4.965398    4.3867387 
   3.3135864   0.37099097  -0.58255729     4.969137    4.3865797 
   3.3080857   0.37431651  -0.57433364    4.9608881    4.3865544 
   3.2996355   0.39134625  -0.56186376    4.9482159    4.3863522 
   3.3328041     0.369103  -0.61165312    4.9979564    4.3863033 
   3.3165228   0.38988444  -0.58728686    4.9735405    4.3862536 
   3.3169319   0.38407209  -0.58787332     4.974154    4.3862807 
   3.3341359   0.36441344  -0.61366502    4.9999535    4.3862885 
   3.3218099   0.37571483  -0.59520128    4.9814691    4.3862679 
   3.3304076   0.37055929  -0.60803857    4.9943625    4.3863239 
   3.3213087   0.38178838  -0.59447301    4.9807176    4.3862446 
   3.3313861   0.37308578   -0.6095906    4.9958299    4.3862393 
   3.3331456   0.37258368  -0.61235456    4.9984685     4.386114 
   3.3364334   0.37118505  -0.61709465     5.003399    4.3863044 
   3.3342486   0.37830747  -0.61365278    5.0001225    4.3864697 
   3.3300882   0.38045582  -0.60744866    4.9938836    4.3864349 
   3.3523172   0.35598926  -0.64078137    5.0272186    4.3864373 
   3.3191212   0.37840779   -0.5911071    4.9774371      4.38633 
   3.3259071    0.3683335  -0.60137023    4.9876135    4.3862433 
   3.3160186   0.38274552  -0.58654706    4.9727844    4.3862373 
   3.3250854   0.37923851   -0.6001364    4.9863812    4.3862448 
   3.3290628   0.38341948  -0.60622612    4.9923458    4.3861197 
   3.3160094   0.39526016  -0.58632437    4.9727706    4.3864462 
   3.3316809   0.38052912  -0.60987573    4.9962719    4.3863962 
    3.329282   0.37501579  -0.60615473    4.9926745    4.3865198 
   3.3258402   0.37096701  -0.60106695    4.9875131    4.3864462 
   3.3250055   0.37293543  -0.59986954    4.9862614    4.3863918 
   3.3181326   0.38021984  -0.58938673    4.9759546    4.3865679 
   3.3318409   0.36602552  -0.61005084    4.9965119    4.3864611 
   3.3188642   0.37586201  -0.59044266    4.9770518    4.3866091 
   3.3205413   0.37429978   -0.5928189    4.9795667    4.3867478 
   3.3228033   0.37442535  -0.59621596    4.9829589     4.386743 
   3.3318661   0.36575841  -0.60981858    4.9965497    4.3867311 
   3.3197184   0.38101649  -0.59166831    4.9783327    4.3866644 
    3.320483   0.37683954   -0.5928758    4.9794793    4.3866035 
    3.319822   0.37328487  -0.59191028    4.9784881    4.3865778 
   3.3281698   0.37064868  -0.60446291    4.9910066    4.3865437 
   3.3309465   0.37009092  -0.60859694    4.9951706    4.3865737 
   3.3257757   0.37732376  -0.60080848    4.9874164    4.3866079 
   3.3084147   0.39347173  -0.57483753    4.9613815    4.3865439 
   3.3336536   0.36390678  -0.61283856    4.9992304    4.3863918 
   3.3262893   0.36792028  -0.60179446    4.9881866    4.3863921 
   3.3273908   0.36688019  -0.60330435    4.9898384     4.386534 
   3.3197843   0.37679068  -0.59192223    4.9784315    4.3865093 
   3.3106612   0.38442479  -0.57825563    4.9647504    4.3864947 
Loop time of 3.52384 on 8 procs for 5000 steps with 4000 atoms

Performance: 245187.120 tau/day, 1418.907 timesteps/s
41.9% CPU use with 8 MPI tasks x no OpenMP threads

MPI task timing breakdown:
Section |  min time  |  avg time  |  max time  |%varavg| %total
---------------------------------------------------------------
Pair    | 0.47519    | 0.52358    | 0.57109    |   4.3 | 14.86
Neigh   | 0.1168     | 0.12298    | 0.13298    |   1.6 |  3.49
Comm    | 2.7318     | 2.7663     | 2.8078     |   1.8 | 78.50
Output  | 0.037446   | 0.056997   | 0.073074   |   6.1 |  1.62
Modify  | 0.042254   | 0.044681   | 0.047673   |   1.0 |  1.27
Other   |            | 0.009298   |            |       |  0.26

Nlocal:    500 ave 526 max 479 min
Histogram: 1 1 1 1 1 0 1 0 1 1
Nghost:    859.625 ave 901 max 837 min
Histogram: 2 1 1 0 1 2 0 0 0 1
Neighs:    4066.62 ave 4358 max 3772 min
Histogram: 1 1 1 1 0 0 2 0 0 2

Total # of neighbors = 32533
Ave neighs/atom = 8.13325
Neighbor list builds = 250
Dangerous builds not checked
Total wall time: 0:00:03
