LAMMPS (11 Aug 2017)
# 3d Lennard-Jones melt

units		lj
atom_style	atomic
boundary p p p

variable	xx equal ${size}
variable	xx equal 10
variable	yy equal ${size}
variable	yy equal 10
variable	zz equal ${size}
variable	zz equal 10


lattice		fcc ${rho}
lattice		fcc 0.940600
Lattice spacing in x,y,z = 1.62014 1.62014 1.62014
region		box block 0 ${xx} 0 ${yy} 0 ${zz}
region		box block 0 10 0 ${yy} 0 ${zz}
region		box block 0 10 0 10 0 ${zz}
region		box block 0 10 0 10 0 10
create_box	1 box
Created orthogonal box = (0 0 0) to (16.2014 16.2014 16.2014)
  2 by 2 by 2 MPI processor grid
create_atoms	1 box
Created 4000 atoms
mass		1 1.0 #39.948

velocity	all create ${T} 1 loop geom dist uniform#create temp seed
velocity	all create 2.300000 1 loop geom dist uniform
timestep    ${dt}
timestep    0.002000

pair_style	lj/cut 3.0
pair_coeff	1 1 1.0 1.0 3.0

neighbor	0.3 bin
neigh_modify	delay 0 every 20 check no

fix	1 all nve

thermo ${Dump}
thermo 50

thermo_style custom temp press pe ke etotal

#dump dump all custom ${Dump} dump.xyz id type x y z vx vy vz
run		${Run}
run		5000
Neighbor list info ...
  update every 20 steps, delay 0 steps, check no
  max neighbors/atom: 2000, page size: 100000
  master list distance cutoff = 3.3
  ghost atom cutoff = 3.3
  binsize = 1.65, bins = 10 10 10
  1 neighbor lists, perpetual/occasional/extra = 1 0 0
  (1) pair lj/cut, perpetual
      attributes: half, newton on
      pair build: half/bin/atomonly/newton
      stencil: half/bin/3d/newton
      bin: standard
Per MPI rank memory allocation (min/avg/max) = 2.695 | 2.695 | 2.695 Mbytes
Temp Press PotEng KinEng TotEng 
         2.3   -3.3669884   -7.6873776    3.4491375   -4.2382401 
   1.1088359    5.1552031   -5.9519699    1.6628381   -4.2891318 
   1.1338392    4.9238779   -5.9904757    1.7003336    -4.290142 
   1.1913547    4.4959249   -6.0773761    1.7865853   -4.2907909 
   1.2144647    4.3403931   -6.1121792    1.8212416   -4.2909376 
   1.2057182    4.4002069   -6.0991615    1.8081252   -4.2910363 
   1.2243201    4.2690408    -6.127185     1.836021    -4.291164 
   1.2152111    4.3279035   -6.1135789     1.822361   -4.2912179 
   1.2241613     4.247035   -6.1263862    1.8357829   -4.2906033 
   1.2231277    4.2857296   -6.1250844    1.8342329   -4.2908514 
   1.2150599    4.3121016   -6.1129376    1.8221342   -4.2908034 
   1.2309096    4.2006787   -6.1366692    1.8459027   -4.2907665 
   1.2080307    4.3767187   -6.1022717    1.8115931   -4.2906786 
   1.2368714    4.1883465   -6.1457651    1.8548433   -4.2909219 
   1.2207537    4.2921562   -6.1213448    1.8306727   -4.2906721 
   1.2254003    4.2498806   -6.1284426    1.8376409   -4.2908017 
   1.2226407    4.2487965   -6.1243489    1.8335025   -4.2908464 
   1.2370812    4.1683752   -6.1459234    1.8551579   -4.2907655 
   1.2231237     4.271477   -6.1250195    1.8342268   -4.2907927 
   1.2206346    4.3028371   -6.1213003    1.8304941   -4.2908062 
   1.2068849    4.3732199   -6.1007357    1.8098747   -4.2908609 
   1.2176527    4.3067257   -6.1167032    1.8260225   -4.2906808 
     1.19678    4.4452581    -6.085693    1.7947211   -4.2909718 
   1.2182481     4.294893    -6.117693    1.8269154   -4.2907777 
   1.2301722    4.2162546   -6.1356022     1.844797   -4.2908052 
   1.2163899    4.3169164   -6.1148318    1.8241287   -4.2907032 
   1.2083646    4.3913577   -6.1031158    1.8120938   -4.2910219 
    1.220862    4.2755167   -6.1215681    1.8308352    -4.290733 
   1.2075231    4.3653888   -6.1016104    1.8108319   -4.2907785 
   1.2139467    4.3471575   -6.1111493    1.8204648   -4.2906845 
   1.2043444    4.4059985   -6.0968725     1.806065   -4.2908075 
   1.1955445    4.4759286    -6.083822    1.7928684   -4.2909535 
   1.2351609    4.1951656   -6.1431705    1.8522782   -4.2908923 
   1.1994098    4.4291908   -6.0895839     1.798665   -4.2909189 
   1.2203481    4.3147503   -6.1210741    1.8300645   -4.2910095 
   1.2090135    4.3524185   -6.1038724    1.8130669   -4.2908055 
   1.2091027    4.3608294   -6.1041056    1.8132006    -4.290905 
   1.2155228    4.3250041   -6.1139418    1.8228284   -4.2911134 
   1.2183361    4.3105997   -6.1178403    1.8270472   -4.2907931 
   1.1955956    4.4617956   -6.0841638    1.7929451   -4.2912187 
   1.2080616    4.3805095   -6.1025669    1.8116394   -4.2909275 
    1.203815    4.3952513   -6.0963637    1.8052711   -4.2910926 
   1.2194897    4.2737041   -6.1196209    1.8287772   -4.2908437 
   1.2037697    4.4189113   -6.0960712    1.8052031   -4.2908681 
   1.2015303    4.4223267   -6.0927495    1.8018449   -4.2909046 
   1.1997879    4.4627755   -6.0900798    1.7992319   -4.2908479 
   1.2086187    4.3720316   -6.1034834    1.8124748   -4.2910086 
   1.2095477    4.3762411   -6.1047334     1.813868   -4.2908655 
   1.2246517     4.301199    -6.127446    1.8365184   -4.2909276 
   1.2336951    4.2169963   -6.1409063      1.85008   -4.2908263 
   1.2133358    4.3424413     -6.11049    1.8195487   -4.2909412 
   1.2026732    4.4238758   -6.0942537    1.8035588    -4.290695 
   1.2270681    4.2343136   -6.1307255     1.840142   -4.2905836 
    1.208776    4.3564232   -6.1033196    1.8127108   -4.2906088 
   1.2190958    4.2804904   -6.1188403    1.8281866   -4.2906537 
   1.2211901      4.26573   -6.1220542    1.8313272   -4.2907271 
   1.2066851    4.3819911   -6.1003862    1.8095751   -4.2908111 
   1.2153285    4.3399119   -6.1133463     1.822537   -4.2908094 
   1.2063332     4.399996   -6.0998899    1.8090475   -4.2908425 
   1.2187272    4.3172116   -6.1185894    1.8276338   -4.2909556 
   1.2177139     4.307462   -6.1170293    1.8261143    -4.290915 
   1.2197306    4.2948937   -6.1201359    1.8291385   -4.2909974 
   1.2088948    4.3573052   -6.1036788    1.8128888     -4.29079 
   1.2214913     4.293671    -6.122756    1.8317789   -4.2909771 
   1.2003091    4.4211887     -6.09093    1.8000135   -4.2909165 
   1.2054472    4.3937764   -6.0986426    1.8077188   -4.2909238 
    1.203407    4.4088599   -6.0959482    1.8046592    -4.291289 
   1.1859796    4.5511123   -6.0698432    1.7785246   -4.2913185 
   1.2039564    4.4113653   -6.0967853    1.8054832   -4.2913021 
    1.201259    4.4284319   -6.0928905    1.8014381   -4.2914524 
   1.2049571    4.3903475   -6.0981568    1.8069839   -4.2911729 
   1.1912396    4.5126445   -6.0776172    1.7864127   -4.2912045 
   1.1947168    4.4580561   -6.0827923    1.7916272   -4.2911651 
   1.1934507    4.4879969   -6.0809843    1.7897285   -4.2912558 
   1.1822113    4.5280461   -6.0639829    1.7728736   -4.2911094 
   1.2023689    4.4023402    -6.094317    1.8031024   -4.2912146 
   1.1918477    4.4981762   -6.0787496    1.7873246    -4.291425 
   1.2230729    4.2882585   -6.1254914    1.8341507   -4.2913407 
   1.1993677    4.4331789   -6.0900537    1.7986018   -4.2914518 
   1.2120734    4.3358316   -6.1086735    1.8176555    -4.291018 
   1.1957801    4.4695393   -6.0844914    1.7932217   -4.2912697 
   1.1962435    4.4883947   -6.0853231    1.7939166   -4.2914065 
   1.1934301    4.4928266   -6.0815206    1.7896976   -4.2918229 
   1.1896282    4.5048826   -6.0755148    1.7839962   -4.2915185 
   1.1929259    4.5024074   -6.0803323    1.7889416   -4.2913907 
   1.2117546    4.3505778   -6.1085409    1.8171775   -4.2913634 
   1.1990643    4.4441379   -6.0896941    1.7981468   -4.2915473 
   1.2118443    4.3735948   -6.1087102    1.8173119   -4.2913983 
   1.1917877    4.4998793   -6.0786637    1.7872346   -4.2914291 
   1.2034111    4.4458901   -6.0960401    1.8046654   -4.2913747 
   1.1913135    4.5086074   -6.0779195    1.7865235    -4.291396 
    1.193201    4.4761917   -6.0806671     1.789354   -4.2913131 
   1.1998438    4.4629813   -6.0908003    1.7993157   -4.2914845 
   1.1836377    4.5645694   -6.0664394    1.7750126   -4.2914267 
   1.1829518    4.5781318   -6.0655753    1.7739841   -4.2915912 
   1.1564238     4.762499    -6.025442     1.734202     -4.29124 
   1.1723617    4.6429806   -6.0496916    1.7581028   -4.2915887 
   1.1891235     4.550246   -6.0750331    1.7832393   -4.2917938 
   1.1793345    4.6247222   -6.0603118    1.7685594   -4.2917524 
   1.1772559    4.6250753   -6.0572804    1.7654424    -4.291838 
   1.1942542    4.5237425   -6.0827735    1.7909334   -4.2918401 
Loop time of 7.26591 on 8 procs for 5000 steps with 4000 atoms

Performance: 118911.440 tau/day, 688.145 timesteps/s
75.7% CPU use with 8 MPI tasks x no OpenMP threads

MPI task timing breakdown:
Section |  min time  |  avg time  |  max time  |%varavg| %total
---------------------------------------------------------------
Pair    | 3.8467     | 4.0593     | 4.196      |   6.7 | 55.87
Neigh   | 0.39636    | 0.41345    | 0.44053    |   1.9 |  5.69
Comm    | 2.5947     | 2.726      | 2.9525     |   8.6 | 37.52
Output  | 0.0032656  | 0.0044686  | 0.01129    |   3.9 |  0.06
Modify  | 0.041051   | 0.04452    | 0.048588   |   1.5 |  0.61
Other   |            | 0.0182     |            |       |  0.25

Nlocal:    500 ave 525 max 472 min
Histogram: 2 0 2 0 0 0 1 0 0 3
Nghost:    2583.62 ave 2601 max 2570 min
Histogram: 2 1 1 0 0 2 0 0 0 2
Neighs:    35567.1 ave 37348 max 33879 min
Histogram: 1 2 0 1 0 0 0 2 1 1

Total # of neighbors = 284537
Ave neighs/atom = 71.1342
Neighbor list builds = 250
Dangerous builds not checked
Total wall time: 0:00:07
