LAMMPS (11 Aug 2017)
# 3d Lennard-Jones melt

units		lj
atom_style	atomic
boundary p p p

variable	xx equal ${size}
variable	xx equal 10
variable	yy equal ${size}
variable	yy equal 10
variable	zz equal ${size}
variable	zz equal 10


lattice		fcc ${rho}
lattice		fcc 0.524800
Lattice spacing in x,y,z = 1.96799 1.96799 1.96799
region		box block 0 ${xx} 0 ${yy} 0 ${zz}
region		box block 0 10 0 ${yy} 0 ${zz}
region		box block 0 10 0 10 0 ${zz}
region		box block 0 10 0 10 0 10
create_box	1 box
Created orthogonal box = (0 0 0) to (19.6799 19.6799 19.6799)
  2 by 2 by 2 MPI processor grid
create_atoms	1 box
Created 4000 atoms
mass		1 1.0 #39.948

velocity	all create ${T} 1 loop geom dist uniform#create temp seed
velocity	all create 1.940000 1 loop geom dist uniform
timestep    ${dt}
timestep    0.002000

pair_style	lj/cut 3.0
pair_coeff	1 1 1.0 1.0 3.0

neighbor	0.3 bin
neigh_modify	delay 0 every 20 check no

fix	1 all nve

thermo ${Dump}
thermo 50

thermo_style custom temp press pe ke etotal

#dump dump all custom ${Dump} dump.xyz id type x y z vx vy vz
run		${Run}
run		5000
Neighbor list info ...
  update every 20 steps, delay 0 steps, check no
  max neighbors/atom: 2000, page size: 100000
  master list distance cutoff = 3.3
  ghost atom cutoff = 3.3
  binsize = 1.65, bins = 12 12 12
  1 neighbor lists, perpetual/occasional/extra = 1 0 0
  (1) pair lj/cut, perpetual
      attributes: half, newton on
      pair build: half/bin/atomonly/newton
      stencil: half/bin/3d/newton
      bin: standard
Per MPI rank memory allocation (min/avg/max) = 2.645 | 2.645 | 2.645 Mbytes
Temp Press PotEng KinEng TotEng 
        1.94   -2.0133069   -3.3479594    2.9092725  -0.43868692 
   1.8560398  -0.39212032    -3.235445    2.7833637  -0.45208133 
   1.7402146    1.2606213   -3.0613352    2.6096694  -0.45166586 
   1.8112479    1.1722336    -3.166999    2.7161926   -0.4508064 
   1.8331301    1.1000861   -3.1996855    2.7490078  -0.45067768 
   1.8321554    1.0822782   -3.1984648     2.747546  -0.45091875 
   1.8161006    1.1484084   -3.1748067    2.7234698  -0.45133684 
   1.8189749    1.1466885   -3.1790157    2.7277802  -0.45123552 
   1.8450216    1.0525261   -3.2182179    2.7668406  -0.45137731 
    1.821951     1.137013   -3.1836815    2.7322433  -0.45143819 
   1.8308272    1.0810851   -3.1968464    2.7455542  -0.45129224 
   1.8233213    1.1346961   -3.1856116    2.7342982  -0.45131347 
   1.8449835    1.0216895   -3.2180426    2.7667834   -0.4512592 
   1.8262342    1.1109368   -3.1897623    2.7386665  -0.45109575 
   1.8248279    1.1768446   -3.1877595    2.7365575  -0.45120204 
   1.8293703    1.1626455   -3.1947291    2.7433694  -0.45135964 
   1.8421886    1.0864247    -3.214006    2.7625921  -0.45141386 
   1.8096315    1.2311423   -3.1652181    2.7137687  -0.45144935 
   1.8297377    1.1526793   -3.1954824    2.7439205  -0.45156189 
   1.8439272    1.0744039     -3.21667    2.7651993  -0.45147073 
   1.8323008    1.1115171   -3.1991079    2.7477641   -0.4513438 
   1.8289892    1.1364748   -3.1940577     2.742798  -0.45125974 
   1.8356813    1.1323488   -3.2040091    2.7528336  -0.45117551 
   1.8307075    1.1552787   -3.1966091    2.7453747  -0.45123442 
    1.818092    1.2030915   -3.1778527    2.7264562  -0.45139652 
   1.8168552    1.1449772   -3.1756763    2.7246015   -0.4510748 
   1.8422159    1.0552598   -3.2136026     2.762633  -0.45096964 
   1.8251315     1.178965   -3.1882152    2.7370129  -0.45120235 
   1.8275807    1.1915465   -3.1920236    2.7406857  -0.45133794 
   1.8150507    1.1973659   -3.1730803    2.7218954  -0.45118492 
   1.8409803    1.0823742   -3.2120951    2.7607801  -0.45131499 
   1.8357845    1.0974942   -3.2045034    2.7529884  -0.45151505 
   1.8401643    1.0914639   -3.2110675    2.7595565  -0.45151107 
   1.8299847    1.1526516   -3.1957571    2.7442908  -0.45146628 
   1.8300489    1.1384437   -3.1958337    2.7443871  -0.45144665 
   1.8382658    1.0819266   -3.2080684    2.7567094  -0.45135897 
   1.8258248    1.1481111   -3.1895785    2.7380525  -0.45152601 
   1.8399184    1.1020353   -3.2106951    2.7591876  -0.45150742 
   1.8435368    1.0913268   -3.2158799    2.7646139  -0.45126592 
   1.8197652     1.205743   -3.1805423    2.7289654  -0.45157682 
   1.8388071    1.1251973   -3.2091493    2.7575212  -0.45162817 
   1.8243769    1.1518544   -3.1875151    2.7358813  -0.45163388 
   1.8233752    1.1543915   -3.1857981    2.7343791  -0.45141906 
   1.8236257    1.1561018   -3.1860181    2.7347546   -0.4512635 
   1.8208754    1.1570964    -3.182189    2.7306302  -0.45155871 
   1.8226305    1.1241847   -3.1846448    2.7332623  -0.45138251 
   1.8327472    1.0775852   -3.1997566    2.7484336  -0.45132304 
    1.823916    1.1475281   -3.1866313    2.7351901  -0.45144124 
   1.8233893    1.1698545   -3.1858199    2.7344002  -0.45141963 
   1.8324784    1.1418106   -3.1995379    2.7480304  -0.45150753 
   1.8310559    1.1531567   -3.1974731    2.7458971  -0.45157595 
   1.8419677    1.1210451   -3.2141281    2.7622608  -0.45186724 
   1.8249994    1.2318251   -3.1884525    2.7368147   -0.4516378 
   1.8315942    1.1688272   -3.1985907    2.7467045  -0.45188629 
   1.8352369     1.098827   -3.2036777    2.7521671  -0.45151058 
   1.8277442    1.1030031   -3.1922641     2.740931  -0.45133311 
    1.827943    1.1348204   -3.1925019     2.741229  -0.45127291 
    1.824173    1.1517065   -3.1868222    2.7355754  -0.45124677 
   1.8242096     1.129555   -3.1871237    2.7356303  -0.45149341 
   1.8227969     1.128594   -3.1847324    2.7335119  -0.45122054 
   1.8264579    1.1107894   -3.1903692    2.7390019  -0.45136733 
   1.8313602      1.12523   -3.1975331    2.7463535  -0.45117967 
   1.8454621    1.0679377     -3.21877    2.7675011   -0.4512689 
   1.8300949    1.1598823   -3.1955811    2.7444561  -0.45112504 
   1.8196795    1.1897118   -3.1801795    2.7288369  -0.45134258 
   1.8265229    1.1497386   -3.1906024    2.7390994  -0.45150293 
   1.8256769    1.1645385   -3.1894538    2.7378308  -0.45162301 
   1.8220097    1.1706389   -3.1837934    2.7323313  -0.45146209 
   1.8082491    1.1889217   -3.1632224    2.7116955  -0.45152686 
   1.8268679    1.1038233   -3.1912092    2.7396167  -0.45159244 
   1.8415029    1.0470226   -3.2129804    2.7615637  -0.45141671 
   1.8333767     1.121334   -3.2008226    2.7493775  -0.45144509 
   1.8473682    1.0926654   -3.2217084    2.7703596  -0.45134884 
   1.8287074    1.1594488    -3.193995    2.7423753  -0.45161976 
    1.838935    1.1127417   -3.2094565    2.7577129   -0.4517436 
   1.8189718    1.1973535   -3.1792466    2.7277756  -0.45147104 
   1.8328661    1.1150772   -3.2000622    2.7486118  -0.45145037 
   1.8362995    1.1092801   -3.2052607    2.7537606  -0.45150009 
   1.8076027     1.255573   -3.1623863    2.7107262  -0.45166011 
    1.833338    1.1804183   -3.2008966    2.7493195  -0.45157714 
   1.8295217    1.1887466   -3.1950535    2.7435965  -0.45145703 
   1.8372337    1.0934387   -3.2065884    2.7551615  -0.45142685 
   1.8160532    1.1822647   -3.1747857    2.7233987  -0.45138698 
   1.8256927    1.1566244    -3.189336    2.7378544  -0.45148162 
   1.8379952    1.1080047   -3.2074927    2.7563036  -0.45118914 
   1.8285449    1.1572109   -3.1936265    2.7421316  -0.45149487 
   1.8569643    1.0515987   -3.2363147    2.7847501  -0.45156462 
   1.8293221    1.1522547   -3.1949429    2.7432971  -0.45164578 
   1.8369853    1.1154232   -3.2060331    2.7547891  -0.45124398 
   1.8314947    1.1373975   -3.1980405    2.7465552  -0.45148529 
   1.8264831    1.1732996   -3.1904804    2.7390398  -0.45144065 
   1.8405663    1.1400477   -3.2116989    2.7601593  -0.45153964 
   1.8305266      1.15349   -3.1966106    2.7451035  -0.45150713 
   1.8395466    1.1115693   -3.2100567    2.7586301  -0.45142662 
   1.8271807    1.1673505   -3.1916859    2.7400858  -0.45160009 
   1.8207181     1.135575   -3.1818528    2.7303943  -0.45145844 
   1.8075037    1.1814446   -3.1618937    2.7105777  -0.45131602 
     1.83044    1.1337902   -3.1963365    2.7449736  -0.45136287 
   1.8271977    1.1681127   -3.1914382    2.7401114  -0.45132681 
   1.8310679    1.1297881   -3.1973667    2.7459152  -0.45145148 
   1.8379581    1.1121783   -3.2076054     2.756248  -0.45135746 
Loop time of 6.7272 on 8 procs for 5000 steps with 4000 atoms

Performance: 128433.835 tau/day, 743.251 timesteps/s
57.4% CPU use with 8 MPI tasks x no OpenMP threads

MPI task timing breakdown:
Section |  min time  |  avg time  |  max time  |%varavg| %total
---------------------------------------------------------------
Pair    | 2.0483     | 2.3606     | 2.6442     |  12.1 | 35.09
Neigh   | 0.25515    | 0.28507    | 0.3302     |   4.7 |  4.24
Comm    | 3.6518     | 3.9727     | 4.3151     |  10.6 | 59.05
Output  | 0.036951   | 0.044126   | 0.051478   |   2.6 |  0.66
Modify  | 0.043794   | 0.047123   | 0.050308   |   1.1 |  0.70
Other   |            | 0.01761    |            |       |  0.26

Nlocal:    500 ave 523 max 470 min
Histogram: 1 1 0 0 0 2 1 1 1 1
Nghost:    1833.25 ave 1859 max 1809 min
Histogram: 1 0 1 1 1 2 0 1 0 1
Neighs:    19583.4 ave 21004 max 17631 min
Histogram: 1 0 0 1 1 1 1 1 0 2

Total # of neighbors = 156667
Ave neighs/atom = 39.1668
Neighbor list builds = 250
Dangerous builds not checked
Total wall time: 0:00:06
