LAMMPS (11 Aug 2017)
# 3d Lennard-Jones melt

units		lj
atom_style	atomic
boundary p p p

variable	xx equal ${size}
variable	xx equal 10
variable	yy equal ${size}
variable	yy equal 10
variable	zz equal ${size}
variable	zz equal 10


lattice		fcc ${rho}
lattice		fcc 0.346600
Lattice spacing in x,y,z = 2.25984 2.25984 2.25984
region		box block 0 ${xx} 0 ${yy} 0 ${zz}
region		box block 0 10 0 ${yy} 0 ${zz}
region		box block 0 10 0 10 0 ${zz}
region		box block 0 10 0 10 0 10
create_box	1 box
Created orthogonal box = (0 0 0) to (22.5984 22.5984 22.5984)
  2 by 2 by 2 MPI processor grid
create_atoms	1 box
Created 4000 atoms
mass		1 1.0 #39.948

velocity	all create ${T} 1 loop geom dist uniform#create temp seed
velocity	all create 2.600000 1 loop geom dist uniform
timestep    ${dt}
timestep    0.002000

pair_style	lj/cut 3.0
pair_coeff	1 1 1.0 1.0 3.0

neighbor	0.3 bin
neigh_modify	delay 0 every 20 check no

fix	1 all nve

thermo ${Dump}
thermo 50

thermo_style custom temp press pe ke etotal

#dump dump all custom ${Dump} dump.xyz id type x y z vx vy vz
run		${Run}
run		5000
Neighbor list info ...
  update every 20 steps, delay 0 steps, check no
  max neighbors/atom: 2000, page size: 100000
  master list distance cutoff = 3.3
  ghost atom cutoff = 3.3
  binsize = 1.65, bins = 14 14 14
  1 neighbor lists, perpetual/occasional/extra = 1 0 0
  (1) pair lj/cut, perpetual
      attributes: half, newton on
      pair build: half/bin/atomonly/newton
      stencil: half/bin/3d/newton
      bin: standard
Per MPI rank memory allocation (min/avg/max) = 2.608 | 2.608 | 2.608 Mbytes
Temp Press PotEng KinEng TotEng 
         2.6  -0.11353148   -1.5509574     3.899025    2.3480676 
    2.793397  0.013882976   -1.8350061     4.189048     2.354042 
    2.692827    1.3328979   -1.6803668    4.0382307    2.3578638 
   2.8199085     1.288012   -1.8707856    4.2288054    2.3580197 
   2.8414985    1.2727672   -1.9031826    4.2611822    2.3579996 
   2.8199583    1.3090456   -1.8713481      4.22888    2.3575319 
   2.8249361    1.2759171   -1.8789562    4.2363448    2.3573885 
   2.8372977    1.2303411   -1.8977876    4.2548826     2.357095 
   2.8390304    1.1956379   -1.9002021    4.2574809    2.3572788 
   2.8449879    1.1938881   -1.9093174    4.2664149    2.3570975 
   2.8467807    1.1798824   -1.9117878    4.2691035    2.3573157 
   2.8439379    1.2175922   -1.9071937    4.2648403    2.3576466 
   2.8279516    1.2499871   -1.8835219     4.240867    2.3573451 
   2.8599863    1.1540873   -1.9315715     4.288907    2.3573355 
   2.8547989    1.1744535   -1.9237095    4.2811279    2.3574184 
   2.8446328    1.2321369   -1.9084882    4.2658825    2.3573943 
   2.8429976    1.2545906   -1.9060867    4.2634303    2.3573436 
   2.8555358    1.2294824   -1.9249542    4.2822329    2.3572787 
   2.8477245    1.2186986   -1.9131435    4.2705188    2.3573753 
   2.8538904    1.1828504    -1.922545    4.2797653    2.3572203 
   2.8634819    1.1586044   -1.9369413    4.2941491    2.3572078 
   2.8372716    1.2322031    -1.897476    4.2548435    2.3573674 
   2.8467961    1.2235508   -1.9120366    4.2691265      2.35709 
    2.856564    1.2051802   -1.9264838    4.2837748     2.357291 
   2.8489568     1.239732   -1.9149323    4.2723668    2.3574345 
   2.8777432    1.1551844   -1.9582551    4.3155357    2.3572806 
   2.8666406    1.1759349   -1.9417599    4.2988859     2.357126 
   2.8675339     1.200565   -1.9431985    4.3002255     2.357027 
   2.8513663    1.2487651   -1.9190532    4.2759802     2.356927 
   2.8638977    1.2047751   -1.9377363    4.2947727    2.3570364 
   2.8692024     1.168052    -1.945569    4.3027277    2.3571586 
   2.8575817    1.1962065   -1.9281675     4.285301    2.3571335 
   2.8475736    1.2177273   -1.9131057    4.2702925    2.3571868 
   2.8458117    1.1980665   -1.9106187    4.2676503    2.3570316 
   2.8552073    1.1802153   -1.9246579    4.2817402    2.3570823 
   2.8701347    1.1438096    -1.947113    4.3041258    2.3570128 
    2.860671    1.1919015   -1.9328109    4.2899337    2.3571228 
   2.8740635    1.1838947   -1.9530376    4.3100175    2.3569799 
   2.8670111    1.2086803   -1.9423403    4.2994415    2.3571012 
   2.8677245    1.1896912   -1.9436048    4.3005113    2.3569065 
   2.8552655    1.2172471       -1.925    4.2818275    2.3568275 
   2.8652883    1.1837696   -1.9400199    4.2968579    2.3568381 
   2.8743565    1.1636754    -1.953694    4.3104569    2.3567629 
   2.8643275    1.1953894   -1.9387215    4.2954172    2.3566957 
   2.8739683     1.177536   -1.9533376    4.3098748    2.3565372 
   2.8638459    1.2230794   -1.9382117     4.294695    2.3564833 
   2.8676947     1.212722   -1.9438466    4.3004667    2.3566201 
   2.8797524    1.2000031   -1.9618659    4.3185486    2.3566827 
   2.8774124    1.2268918   -1.9583687    4.3150395    2.3566708 
   2.8866875    1.2101167   -1.9722336    4.3289487    2.3567151 
   2.8714556    1.2463575   -1.9493317    4.3061066    2.3567748 
   2.8750305    1.2295953   -1.9545977    4.3114676    2.3568699 
   2.8660496    1.2547817   -1.9410183    4.2979996    2.3569813 
   2.8760117    1.2045965   -1.9559864     4.312939    2.3569526 
   2.8586335    1.2077645   -1.9298148    4.2868783    2.3570636 
   2.8418916       1.2474   -1.9049075    4.2617718    2.3568643 
   2.8765364     1.161319    -1.956804    4.3137259    2.3569219 
   2.8522799    1.1983905    -1.920438    4.2773503    2.3569123 
   2.8356117    1.2446581   -1.8954385    4.2523543    2.3569157 
   2.8528166    1.2134455   -1.9213203    4.2781552    2.3568348 
   2.8736293    1.1514319   -1.9528441    4.3093664    2.3565223 
   2.8410553    1.2537705   -1.9036854    4.2605175    2.3568321 
   2.8796925    1.1446685   -1.9615644    4.3184588    2.3568944 
    2.890861    1.1237277   -1.9783542    4.3352075    2.3568533 
   2.8622021    1.2147534   -1.9354762    4.2922298    2.3567535 
   2.8788061    1.1487245   -1.9604788    4.3171295    2.3566507 
   2.8500029    1.2291649   -1.9171568    4.2739356    2.3567788 
   2.8585139    1.2067938   -1.9299621    4.2866989    2.3567367 
      2.8383    1.2505739   -1.8995783    4.2563856    2.3568073 
   2.8500162    1.2030633    -1.917104    4.2739556    2.3568516 
   2.8540836    1.2013798    -1.923192    4.2800552    2.3568632 
   2.8417927    1.2404432   -1.9048498    4.2616234    2.3567736 
   2.8635452    1.1571012   -1.9373287     4.294244    2.3569153 
   2.8538077    1.1939748   -1.9227136    4.2796414    2.3569279 
   2.8444742    1.2245712   -1.9086792    4.2656447    2.3569654 
   2.8474919    1.2163832   -1.9133566    4.2701701    2.3568135 
   2.8545269    1.1894936    -1.923899      4.28072     2.356821 
   2.8523986    1.2260063   -1.9206886    4.2775283    2.3568397 
   2.8458445    1.2644626   -1.9109052    4.2676995    2.3567943 
   2.8594694    1.2203598    -1.931281    4.2881317    2.3568507 
    2.876525    1.1724547   -1.9569555    4.3137088    2.3567533 
   2.8674358    1.1950437   -1.9433113    4.3000784    2.3567671 
   2.8653112    1.1929413   -1.9401156    4.2968924    2.3567768 
    2.882457     1.140219   -1.9659072    4.3226045    2.3566973 
   2.8451687     1.245678   -1.9101541    4.2666861     2.356532 
   2.8633741    1.2206752   -1.9374542    4.2939874    2.3565332 
   2.8846922    1.1576641   -1.9696298    4.3259565    2.3563267 
   2.8567553     1.257611   -1.9276985    4.2840617    2.3563632 
   2.8625984    1.2400051   -1.9360656    4.2928241    2.3567586 
   2.8546023    1.2528002   -1.9242293     4.280833    2.3566037 
   2.8657649    1.2183139   -1.9408647    4.2975727     2.356708 
   2.8539978    1.2657962   -1.9233096    4.2799265    2.3566169 
   2.8572948    1.2466453   -1.9282228    4.2848707    2.3566479 
    2.869465    1.2103927    -1.946448    4.3031214    2.3566734 
   2.8734337    1.1913946   -1.9523938    4.3090731    2.3566792 
   2.8677567    1.1723459   -1.9438926    4.3005596     2.356667 
   2.8545994    1.2168279   -1.9239801    4.2808286    2.3568485 
    2.880107    1.1897993    -1.962165    4.3190804    2.3569154 
   2.8533086    1.2748089    -1.922046    4.2788929    2.3568469 
   2.8749917    1.1761202   -1.9548703    4.3114095    2.3565392 
   2.8454117     1.254813   -1.9104712    4.2670505    2.3565793 
Loop time of 6.59073 on 8 procs for 5000 steps with 4000 atoms

Performance: 131093.260 tau/day, 758.642 timesteps/s
48.8% CPU use with 8 MPI tasks x no OpenMP threads

MPI task timing breakdown:
Section |  min time  |  avg time  |  max time  |%varavg| %total
---------------------------------------------------------------
Pair    | 1.5166     | 1.7218     | 1.9112     |   9.5 | 26.12
Neigh   | 0.20919    | 0.2329     | 0.263      |   3.9 |  3.53
Comm    | 4.3196     | 4.538      | 4.7648     |   6.7 | 68.85
Output  | 0.02629    | 0.032179   | 0.041584   |   2.7 |  0.49
Modify  | 0.044959   | 0.052231   | 0.06419    |   2.5 |  0.79
Other   |            | 0.01367    |            |       |  0.21

Nlocal:    500 ave 529 max 486 min
Histogram: 2 2 1 1 0 1 0 0 0 1
Nghost:    1483.38 ave 1499 max 1474 min
Histogram: 3 0 0 2 0 1 0 1 0 1
Neighs:    12917.1 ave 14417 max 11852 min
Histogram: 1 0 2 3 0 0 0 0 1 1

Total # of neighbors = 103337
Ave neighs/atom = 25.8343
Neighbor list builds = 250
Dangerous builds not checked
Total wall time: 0:00:06
