LAMMPS (11 Aug 2017)
# 3d Lennard-Jones melt

units		lj
atom_style	atomic
boundary p p p

variable	xx equal ${size}
variable	xx equal 10
variable	yy equal ${size}
variable	yy equal 10
variable	zz equal ${size}
variable	zz equal 10


lattice		fcc ${rho}
lattice		fcc 0.980200
Lattice spacing in x,y,z = 1.59802 1.59802 1.59802
region		box block 0 ${xx} 0 ${yy} 0 ${zz}
region		box block 0 10 0 ${yy} 0 ${zz}
region		box block 0 10 0 10 0 ${zz}
region		box block 0 10 0 10 0 10
create_box	1 box
Created orthogonal box = (0 0 0) to (15.9802 15.9802 15.9802)
  2 by 2 by 2 MPI processor grid
create_atoms	1 box
Created 4000 atoms
mass		1 1.0 #39.948

velocity	all create ${T} 1 loop geom dist uniform#create temp seed
velocity	all create 1.100000 1 loop geom dist uniform
timestep    ${dt}
timestep    0.002000

pair_style	lj/cut 3.0
pair_coeff	1 1 1.0 1.0 3.0

neighbor	0.3 bin
neigh_modify	delay 0 every 20 check no

fix	1 all nve

thermo ${Dump}
thermo 50

thermo_style custom temp press pe ke etotal

#dump dump all custom ${Dump} dump.xyz id type x y z vx vy vz
run		${Run}
run		5000
Neighbor list info ...
  update every 20 steps, delay 0 steps, check no
  max neighbors/atom: 2000, page size: 100000
  master list distance cutoff = 3.3
  ghost atom cutoff = 3.3
  binsize = 1.65, bins = 10 10 10
  1 neighbor lists, perpetual/occasional/extra = 1 0 0
  (1) pair lj/cut, perpetual
      attributes: half, newton on
      pair build: half/bin/atomonly/newton
      stencil: half/bin/3d/newton
      bin: standard
Per MPI rank memory allocation (min/avg/max) = 2.695 | 2.695 | 2.695 Mbytes
Temp Press PotEng KinEng TotEng 
         1.1   -3.7049342   -8.0392728    1.6495875   -6.3896853 
  0.41132795    1.5321071   -6.9442592   0.61683768   -6.3274215 
   0.5187448   0.72206916   -7.1056992   0.77792268   -6.3277765 
  0.59115965   0.18183503   -7.2152176   0.88651779   -6.3286998 
  0.58291233   0.24368133   -7.2025099   0.87414991     -6.32836 
  0.57789871   0.28247886   -7.1950731   0.86663136   -6.3284418 
   0.5837609   0.23088808   -7.2040239   0.87542245   -6.3286015 
  0.58195916   0.25078634   -7.2014784   0.87272051   -6.3287579 
  0.57769385   0.28243016    -7.194782   0.86632414   -6.3284578 
  0.57610585   0.29001488    -7.192737   0.86394274   -6.3287942 
  0.58010461   0.26663341   -7.1987005   0.86993937   -6.3287611 
  0.58338789   0.23948642   -7.2034296   0.87486307   -6.3285665 
  0.57493786   0.29854255    -7.190607   0.86219119   -6.3284158 
  0.57336714   0.30613339   -7.1883501    0.8598357   -6.3285144 
   0.5820624   0.25011211   -7.2013578   0.87287533   -6.3284825 
  0.57779307   0.28719436    -7.195221   0.86647294    -6.328748 
  0.58620099   0.21908232   -7.2079968   0.87908165   -6.3289152 
   0.5729708   0.32337053   -7.1880367   0.85924133   -6.3287954 
  0.57169857   0.31695817   -7.1858738   0.85733347   -6.3285404 
  0.57987904    0.2721057   -7.1983893    0.8696011   -6.3287882 
  0.58413347   0.23957082   -7.2046485   0.87598115   -6.3286673 
  0.57628704   0.29424011   -7.1927527   0.86421446   -6.3285383 
   0.5835354   0.24298207   -7.2036996   0.87508427   -6.3286153 
   0.5738679   0.32103387   -7.1889833   0.86058665   -6.3283967 
  0.58234145   0.25746128   -7.2019837    0.8732938   -6.3286899 
  0.58572109   0.22519518   -7.2070604   0.87836198   -6.3286984 
  0.57903219   0.27457602   -7.1970869   0.86833114   -6.3287558 
  0.56749943   0.35426657    -7.179896   0.85103634   -6.3288597 
  0.58179345   0.26315569   -7.2012824   0.87247201   -6.3288104 
  0.58551143   0.22767129    -7.206884   0.87804757   -6.3288364 
  0.58138931   0.26517061   -7.2006028   0.87186594   -6.3287368 
  0.58241441   0.25176926   -7.2021614   0.87340322   -6.3287582 
  0.57815794   0.27891553   -7.1956988    0.8670201   -6.3286787 
  0.58895196   0.20565423   -7.2120364   0.88320709   -6.3288293 
  0.57409872   0.31004477   -7.1896345    0.8609328   -6.3287017 
  0.57862029   0.26895326   -7.1962825   0.86771344   -6.3285691 
  0.58384004   0.23133377   -7.2042117   0.87554112   -6.3286706 
  0.58004188   0.27079824   -7.1985147   0.86984531   -6.3286694 
  0.57362686   0.30756007   -7.1888981   0.86022518    -6.328673 
   0.5764834   0.28893539   -7.1927019   0.86450892   -6.3281929 
  0.57833126   0.27749318   -7.1955951   0.86728001   -6.3283151 
  0.57649667   0.29373654   -7.1930516   0.86452882   -6.3285227 
  0.58716049   0.20980054    -7.209137   0.88052055   -6.3286164 
  0.57478826   0.29313598   -7.1907102   0.86196685   -6.3287434 
  0.56925457   0.33795254   -7.1823075   0.85366839   -6.3286391 
  0.58114362   0.25001675    -7.200433    0.8714975   -6.3289355 
  0.57647007    0.2897374   -7.1930885   0.86448894   -6.3285996 
  0.58152191   0.25720545   -7.2007581   0.87206479   -6.3286933 
  0.57454978   0.30549439    -7.190304   0.86160922   -6.3286948 
  0.58180992   0.24524911   -7.2011314    0.8724967   -6.3286347 
  0.58443715   0.22951636   -7.2051086   0.87643657   -6.3286721 
  0.57584777   0.30130451   -7.1923016   0.86355571   -6.3287459 
  0.57703739   0.27671785   -7.1940507    0.8653397    -6.328711 
  0.56926112   0.34432557   -7.1820636    0.8536782   -6.3283854 
  0.57398009   0.30607171   -7.1893177   0.86075489   -6.3285628 
   0.5781629   0.27101028   -7.1957677   0.86702754   -6.3287401 
  0.58388249    0.2360648   -7.2042167   0.87560477   -6.3286119 
  0.57768653    0.2850436   -7.1948166   0.86631316   -6.3285035 
  0.58332966   0.24959619   -7.2031365   0.87477574   -6.3283608 
  0.57318813   0.31749457   -7.1883345   0.85956726   -6.3287673 
  0.57581271   0.29424443   -7.1919885   0.86350313   -6.3284854 
  0.57626092   0.29328787   -7.1928968   0.86417528   -6.3287215 
  0.57934776   0.26715876   -7.1974153   0.86880438   -6.3286109 
  0.57948066   0.26745084   -7.1976589   0.86900369   -6.3286552 
  0.57879248   0.26678306   -7.1967659   0.86797167   -6.3287943 
  0.57733604   0.28182218   -7.1947069   0.86578756   -6.3289194 
  0.58484842   0.23159036    -7.205805   0.87705331   -6.3287517 
  0.57873617    0.2682902    -7.196646   0.86788723   -6.3287587 
  0.58036617   0.26193577   -7.1988783   0.87033161   -6.3285467 
  0.58234502   0.24812177   -7.2020336   0.87329915   -6.3287344 
  0.57206739   0.33169948   -7.1864729   0.85788655   -6.3285864 
  0.58500082   0.23227486   -7.2059442   0.87728185   -6.3286623 
  0.57431172   0.31428168   -7.1898817   0.86125221   -6.3286295 
  0.58466723   0.23125185   -7.2054707   0.87678159   -6.3286891 
  0.57819729   0.28099241   -7.1958139   0.86707911   -6.3287348 
  0.57279017   0.31496892   -7.1874393   0.85897046   -6.3284689 
    0.576343   0.29534672    -7.192829   0.86429838   -6.3285306 
  0.58460069   0.22304316   -7.2055386   0.87668181   -6.3288567 
  0.58686861   0.21497316   -7.2089937   0.88008284   -6.3289109 
  0.56899427    0.3473814    -7.181844   0.85327803    -6.328566 
  0.57250519   0.31937037   -7.1870688    0.8585431   -6.3285257 
  0.57428307   0.30218412   -7.1896922   0.86120925    -6.328483 
  0.57920103   0.26979292   -7.1973898   0.86858435   -6.3288055 
  0.58530848   0.21808692   -7.2064528   0.87774323   -6.3287096 
  0.57370406   0.30786403   -7.1888547   0.86034095   -6.3285137 
  0.58519756   0.23067556   -7.2061915   0.87757689   -6.3286146 
  0.58277274   0.24346148   -7.2023667   0.87394056   -6.3284261 
  0.57539637   0.29949212   -7.1912461   0.86287877   -6.3283673 
  0.58289291   0.24217935   -7.2027164   0.87412078   -6.3285956 
  0.58796039   0.20881877   -7.2103247    0.8817201   -6.3286046 
  0.57209855   0.32074283   -7.1867398   0.85793328   -6.3288065 
  0.57937888    0.2634619   -7.1975209   0.86885106   -6.3286698 
  0.58214759   0.24477105   -7.2013273   0.87300308   -6.3283242 
  0.56947774   0.33601031   -7.1827447   0.85400305   -6.3287416 
  0.58070726   0.26111766   -7.1993711   0.87084312    -6.328528 
  0.57727705   0.27611642   -7.1942211    0.8656991    -6.328522 
   0.5731648   0.31006718   -7.1879274   0.85953227   -6.3283952 
   0.5817594   0.25702101   -7.2008722   0.87242094   -6.3284513 
  0.57430409   0.29909024   -7.1894686   0.86124077   -6.3282278 
  0.58097716   0.25938398   -7.1996827   0.87124788   -6.3284348 
  0.58343157   0.24694391   -7.2034319   0.87492857   -6.3285033 
Loop time of 16.3713 on 8 procs for 5000 steps with 4000 atoms

Performance: 52775.362 tau/day, 305.413 timesteps/s
49.6% CPU use with 8 MPI tasks x no OpenMP threads

MPI task timing breakdown:
Section |  min time  |  avg time  |  max time  |%varavg| %total
---------------------------------------------------------------
Pair    | 4.3778     | 4.7026     | 5.1235     |   9.6 | 28.72
Neigh   | 0.4468     | 0.46428    | 0.5045     |   2.7 |  2.84
Comm    | 10.626     | 11.084     | 11.42      |   6.8 | 67.70
Output  | 0.015027   | 0.02467    | 0.032252   |   3.9 |  0.15
Modify  | 0.05318    | 0.063732   | 0.075584   |   2.7 |  0.39
Other   |            | 0.03234    |            |       |  0.20

Nlocal:    500 ave 530 max 489 min
Histogram: 5 0 0 0 1 1 0 0 0 1
Nghost:    2856.12 ave 2874 max 2833 min
Histogram: 1 0 1 0 1 0 3 0 0 2
Neighs:    36286.1 ave 37976 max 34432 min
Histogram: 1 1 0 1 1 0 1 2 0 1

Total # of neighbors = 290289
Ave neighs/atom = 72.5722
Neighbor list builds = 250
Dangerous builds not checked
Total wall time: 0:00:16
