LAMMPS (11 Aug 2017)
# 3d Lennard-Jones melt

units		lj
atom_style	atomic
boundary p p p

variable	xx equal ${size}
variable	xx equal 10
variable	yy equal ${size}
variable	yy equal 10
variable	zz equal ${size}
variable	zz equal 10


lattice		fcc ${rho}
lattice		fcc 0.445600
Lattice spacing in x,y,z = 2.07828 2.07828 2.07828
region		box block 0 ${xx} 0 ${yy} 0 ${zz}
region		box block 0 10 0 ${yy} 0 ${zz}
region		box block 0 10 0 10 0 ${zz}
region		box block 0 10 0 10 0 10
create_box	1 box
Created orthogonal box = (0 0 0) to (20.7828 20.7828 20.7828)
  2 by 2 by 2 MPI processor grid
create_atoms	1 box
Created 4000 atoms
mass		1 1.0 #39.948

velocity	all create ${T} 1 loop geom dist uniform#create temp seed
velocity	all create 1.760000 1 loop geom dist uniform
timestep    ${dt}
timestep    0.002000

pair_style	lj/cut 3.0
pair_coeff	1 1 1.0 1.0 3.0

neighbor	0.3 bin
neigh_modify	delay 0 every 20 check no

fix	1 all nve

thermo ${Dump}
thermo 50

thermo_style custom temp press pe ke etotal

#dump dump all custom ${Dump} dump.xyz id type x y z vx vy vz
run		${Run}
run		5000
Neighbor list info ...
  update every 20 steps, delay 0 steps, check no
  max neighbors/atom: 2000, page size: 100000
  master list distance cutoff = 3.3
  ghost atom cutoff = 3.3
  binsize = 1.65, bins = 13 13 13
  1 neighbor lists, perpetual/occasional/extra = 1 0 0
  (1) pair lj/cut, perpetual
      attributes: half, newton on
      pair build: half/bin/atomonly/newton
      stencil: half/bin/3d/newton
      bin: standard
Per MPI rank memory allocation (min/avg/max) = 2.645 | 2.645 | 2.645 Mbytes
Temp Press PotEng KinEng TotEng 
        1.76   -1.2364147   -2.5062492      2.63934   0.13309081 
   1.8955584  -0.79416415   -2.7001811    2.8426268   0.14244569 
   1.7568418   0.94570991   -2.4909994    2.6346039   0.14360452 
   1.8482596    0.9433134   -2.6266014    2.7716964   0.14509499 
   1.8819306   0.90979828   -2.6768593    2.8221901   0.14533085 
   1.8744559   0.92990277   -2.6656601     2.810981   0.14532084 
   1.8906375   0.85379654   -2.6901183    2.8352473   0.14512904 
   1.8941114   0.83526008    -2.695534    2.8404569   0.14492293 
   1.8889348   0.86137131   -2.6878479    2.8326938   0.14484594 
   1.9090994   0.79747359   -2.7179288    2.8629332   0.14500443 
    1.892669    0.8837416   -2.6934292    2.8382938   0.14486462 
   1.8990936   0.87559401   -2.7031746    2.8479282   0.14475357 
   1.8957399   0.89151831   -2.6979401    2.8428989   0.14495884 
   1.8996936   0.86209343   -2.7039932     2.848828   0.14483487 
   1.8789574   0.96355504    -2.672873    2.8177315   0.14485857 
   1.9039958   0.85344574   -2.7104253    2.8552797    0.1448544 
   1.9001697   0.85255346   -2.7046011     2.849542   0.14494097 
   1.8951761   0.85270156   -2.6972928    2.8420535   0.14476067 
   1.8968446   0.82092006   -2.6998704    2.8445556   0.14468522 
   1.8784874   0.87985034   -2.6723396    2.8170267   0.14468709 
   1.8962622    0.8203948    -2.699131    2.8436821   0.14455115 
   1.8892787    0.8833216   -2.6888793    2.8332096   0.14433028 
   1.8825869   0.91354421   -2.6786848    2.8231744   0.14448963 
   1.8944604   0.86707025    -2.696692    2.8409802   0.14428827 
    1.899949   0.85241202   -2.7049395     2.849211   0.14427155 
   1.9113892   0.82500467   -2.7219586     2.866367   0.14440838 
   1.9005328   0.85639856   -2.7055193    2.8500865   0.14456723 
   1.9152796   0.81830756   -2.7275241    2.8722011   0.14467702 
   1.9010153   0.84742884   -2.7061232      2.85081   0.14468679 
   1.9054192   0.83360614   -2.7124768    2.8574143   0.14493752 
    1.903149   0.84316441   -2.7092127    2.8540098   0.14479708 
   1.9118623   0.81388663   -2.7223509    2.8670765   0.14472556 
   1.9052132   0.85132262   -2.7123029    2.8571054   0.14480245 
   1.8966734   0.88441786   -2.6996444    2.8442988   0.14465441 
   1.9185809   0.78280162    -2.732502    2.8771518   0.14464987 
   1.9091541   0.81378776   -2.7186716    2.8630152   0.14434354 
     1.89236   0.87923863   -2.6932905    2.8378304   0.14453991 
   1.8922679   0.85428056   -2.6930086    2.8376922   0.14468361 
   1.8844393   0.89889689   -2.6814889    2.8259523   0.14446339 
   1.8896568   0.90088172   -2.6892715    2.8337765   0.14450508 
   1.9016163   0.84940563   -2.7070756    2.8517114   0.14463574 
   1.9072498   0.84285964   -2.7153482    2.8601594   0.14481122 
   1.9034709   0.86890728   -2.7095414    2.8544925   0.14495114 
   1.9000136   0.90463899   -2.7044747    2.8493079    0.1448332 
   1.9133997   0.86047453   -2.7248305     2.869382   0.14455144 
   1.8982663   0.89897431   -2.7021822    2.8466877   0.14450549 
    1.896823   0.90825193   -2.6999485    2.8445232   0.14457466 
    1.908636   0.84375909   -2.7177405    2.8622383   0.14449777 
   1.8948473    0.8747875   -2.6972977    2.8415604   0.14426266 
   1.8966345   0.87432797   -2.6997979    2.8442405   0.14444258 
   1.8859684   0.89056196    -2.683742    2.8282453   0.14450337 
   1.8839375   0.89363802   -2.6809558    2.8251998   0.14424408 
   1.8865737   0.89505113   -2.6849661     2.829153    0.1441869 
   1.8937901   0.88020165   -2.6955383     2.839975   0.14443664 
   1.9103266   0.80791589   -2.7202718    2.8647735   0.14450171 
   1.9153637   0.78541029   -2.7277954    2.8723273   0.14453192 
   1.8973823    0.8515837   -2.7006652    2.8453619   0.14469672 
   1.9012104   0.82892519   -2.7063531    2.8511026   0.14474956 
   1.8974107   0.83623436   -2.7005629    2.8454045   0.14484165 
   1.8879008   0.86305168   -2.6863568    2.8311432   0.14478635 
   1.8760095   0.92291047   -2.6686244    2.8133107   0.14468626 
   1.9024768   0.82149774   -2.7082837    2.8530017   0.14471797 
   1.8932591   0.84312928   -2.6945995    2.8391786    0.1445791 
    1.897051   0.85152798   -2.7001378     2.844865   0.14472723 
   1.8867062   0.89060485    -2.684655    2.8293518    0.1446968 
    1.879505   0.92555114   -2.6739559    2.8185527   0.14459678 
   1.9080643   0.81922466    -2.717038     2.861381   0.14434299 
   1.8931017   0.88961673   -2.6943411    2.8389426   0.14460143 
   1.8886072    0.8932808   -2.6875573    2.8322026   0.14464526 
   1.9075773   0.84362161   -2.7161179    2.8606506   0.14453269 
    1.883411   0.89898673   -2.6799115    2.8244102   0.14449876 
   1.9068651   0.78878391    -2.715238    2.8595826    0.1443446 
   1.9095723   0.78777403   -2.7190866    2.8636423   0.14455571 
   1.8947885   0.87315807   -2.6969579    2.8414723   0.14451436 
   1.8925173   0.90473208   -2.6936967    2.8380663   0.14436959 
   1.9004948   0.87339996   -2.7057025    2.8500295   0.14432699 
   1.9057632    0.8680591   -2.7135208    2.8579302   0.14440944 
   1.9047329   0.89095768   -2.7119514     2.856385   0.14443365 
   1.9160097   0.86050308   -2.7291144     2.873296   0.14418159 
   1.8889619   0.95673893   -2.6882043    2.8327345    0.1445302 
   1.8962963   0.90891554   -2.6992689    2.8437333   0.14446441 
    1.885302   0.93344118   -2.6825942     2.827246   0.14465175 
   1.9041066    0.8343317   -2.7109286    2.8554459   0.14451727 
   1.9024512   0.84063315    -2.708437    2.8529633   0.14452634 
   1.9010157   0.85661054   -2.7064304    2.8508107   0.14438027 
   1.8927487   0.89907043   -2.6939247    2.8384133   0.14448864 
   1.9098099   0.84123784   -2.7198083    2.8639986   0.14419035 
   1.9095354   0.85347987   -2.7193506    2.8635871   0.14423648 
   1.9099928   0.88030271   -2.7200702    2.8642729   0.14420271 
   1.9058071   0.91345013   -2.7138505    2.8579959   0.14414539 
   1.9116947   0.86143851    -2.722728    2.8668252   0.14409721 
   1.8954918   0.90398711   -2.6983894    2.8425269   0.14413752 
    1.914959   0.81670873   -2.7275393    2.8717203   0.14418104 
   1.8949963   0.91600692   -2.6977231    2.8417838   0.14406073 
   1.9095729   0.89333655   -2.7195634    2.8636433   0.14407993 
   1.8931188    0.9411872    -2.694869    2.8389683   0.14409933 
   1.9143275    0.8484506    -2.726428    2.8707734   0.14434544 
   1.9069728   0.87243001   -2.7153416    2.8597442   0.14440258 
   1.9135521   0.82888449   -2.7252472    2.8696105   0.14436328 
    1.902702   0.85229425    -2.709037    2.8533395   0.14430248 
    1.882105   0.90986121   -2.6778754    2.8224517   0.14457632 
Loop time of 4.66768 on 8 procs for 5000 steps with 4000 atoms

Performance: 185102.558 tau/day, 1071.195 timesteps/s
65.4% CPU use with 8 MPI tasks x no OpenMP threads

MPI task timing breakdown:
Section |  min time  |  avg time  |  max time  |%varavg| %total
---------------------------------------------------------------
Pair    | 1.7882     | 1.9018     | 2.0016     |   5.3 | 40.75
Neigh   | 0.2229     | 0.23542    | 0.25227    |   2.1 |  5.04
Comm    | 2.2817     | 2.4078     | 2.5077     |   5.2 | 51.58
Output  | 0.028234   | 0.06677    | 0.093223   |   9.2 |  1.43
Modify  | 0.040465   | 0.043015   | 0.046792   |   1.1 |  0.92
Other   |            | 0.01286    |            |       |  0.28

Nlocal:    500 ave 519 max 487 min
Histogram: 1 1 2 1 0 1 1 0 0 1
Nghost:    1671 ave 1697 max 1649 min
Histogram: 2 0 0 1 1 1 1 1 0 1
Neighs:    16644.5 ave 17722 max 15896 min
Histogram: 1 2 0 1 2 0 1 0 0 1

Total # of neighbors = 133156
Ave neighs/atom = 33.289
Neighbor list builds = 250
Dangerous builds not checked
Total wall time: 0:00:04
