LAMMPS (11 Aug 2017)
# 3d Lennard-Jones melt

units		lj
atom_style	atomic
boundary p p p

variable	xx equal ${size}
variable	xx equal 10
variable	yy equal ${size}
variable	yy equal 10
variable	zz equal ${size}
variable	zz equal 10


lattice		fcc ${rho}
lattice		fcc 0.861400
Lattice spacing in x,y,z = 1.66834 1.66834 1.66834
region		box block 0 ${xx} 0 ${yy} 0 ${zz}
region		box block 0 10 0 ${yy} 0 ${zz}
region		box block 0 10 0 10 0 ${zz}
region		box block 0 10 0 10 0 10
create_box	1 box
Created orthogonal box = (0 0 0) to (16.6834 16.6834 16.6834)
  2 by 2 by 2 MPI processor grid
create_atoms	1 box
Created 4000 atoms
mass		1 1.0 #39.948

velocity	all create ${T} 1 loop geom dist uniform#create temp seed
velocity	all create 2.000000 1 loop geom dist uniform
timestep    ${dt}
timestep    0.002000

pair_style	lj/cut 3.0
pair_coeff	1 1 1.0 1.0 3.0

neighbor	0.3 bin
neigh_modify	delay 0 every 20 check no

fix	1 all nve

thermo ${Dump}
thermo 50

thermo_style custom temp press pe ke etotal

#dump dump all custom ${Dump} dump.xyz id type x y z vx vy vz
run		${Run}
run		5000
Neighbor list info ...
  update every 20 steps, delay 0 steps, check no
  max neighbors/atom: 2000, page size: 100000
  master list distance cutoff = 3.3
  ghost atom cutoff = 3.3
  binsize = 1.65, bins = 11 11 11
  1 neighbor lists, perpetual/occasional/extra = 1 0 0
  (1) pair lj/cut, perpetual
      attributes: half, newton on
      pair build: half/bin/atomonly/newton
      stencil: half/bin/3d/newton
      bin: standard
Per MPI rank memory allocation (min/avg/max) = 2.643 | 2.643 | 2.643 Mbytes
Temp Press PotEng KinEng TotEng 
           2   -4.7381733   -7.0896454      2.99925   -4.0903954 
  0.96273835    2.7530782   -5.5553596    1.4437465   -4.1116131 
   1.0424551    2.2644458    -5.678688    1.5632918   -4.1153963 
    1.059693     2.154393   -5.7055778    1.5891422   -4.1164357 
   1.0394182    2.2682001   -5.6757394    1.5587375   -4.1170019 
   1.0462393    2.2650886   -5.6862243    1.5689666   -4.1172577 
   1.0308366    2.3422274   -5.6632026    1.5458684   -4.1173342 
   1.0548832    2.1811548   -5.6994753    1.5819291   -4.1175462 
   1.0134596     2.434903   -5.6372594    1.5198093   -4.1174501 
   1.0156291    2.4580202   -5.6409536    1.5230627   -4.1178909 
   1.0194859    2.4319326   -5.6466124    1.5288466   -4.1177658 
   1.0175275    2.4099512   -5.6440586    1.5259097   -4.1181489 
   1.0087129    2.5081699   -5.6312413    1.5126911   -4.1185502 
   1.0109192    2.5196535   -5.6346204    1.5159998   -4.1186207 
   1.0096877    2.5106323   -5.6326743     1.514153   -4.1185214 
    1.004567    2.5378404   -5.6252598    1.5064738   -4.1187859 
  0.98729097    2.6685945   -5.5994301    1.4805662   -4.1188639 
    1.006092    2.5829485   -5.6275994    1.5087607   -4.1188387 
   1.0091362    2.5770634   -5.6320969    1.5133259    -4.118771 
  0.99454404    2.6351596   -5.6104772    1.4914431   -4.1190341 
  0.99039921    2.6597773   -5.6041121    1.4852274   -4.1188846 
  0.99826767    2.6180563   -5.6159239    1.4970272   -4.1188967 
  0.99201162    2.6638075   -5.6067971    1.4876454   -4.1191516 
   1.0003955    2.5771742    -5.619435    1.5002181   -4.1192169 
    1.001109    2.5754263   -5.6204259     1.501288   -4.1191379 
   1.0009942    2.5991699   -5.6201712    1.5011159   -4.1190553 
   1.0092323    2.5351056   -5.6324441    1.5134699   -4.1189742 
  0.99592326    2.6240872   -5.6126643    1.4935114   -4.1191529 
  0.98339944    2.7092025    -5.594236    1.4747304   -4.1195056 
   1.0034026    2.6107513   -5.6241642    1.5047277   -4.1194365 
  0.99833042    2.6307801   -5.6165367    1.4971213   -4.1194154 
  0.98881079    2.6845629   -5.6020468    1.4828454   -4.1192014 
   1.0048082    2.5770262   -5.6259685    1.5068356   -4.1191329 
  0.99885972    2.6200839   -5.6170989     1.497915   -4.1191838 
  0.98886295    2.6753868   -5.6021707    1.4829236   -4.1192471 
   1.0029128    2.5888594   -5.6230723    1.5039931   -4.1190792 
   1.0121052    2.5209369   -5.6369487    1.5177783   -4.1191704 
   1.0012713    2.6044755   -5.6203546    1.5015315   -4.1188232 
  0.98943156    2.6856517   -5.6028386    1.4837763   -4.1190623 
   1.0070463    2.5472167   -5.6291534    1.5101918   -4.1189616 
  0.99333977    2.6493726    -5.608759    1.4896372   -4.1191219 
  0.98860912    2.6906056   -5.6014376     1.482543   -4.1188947 
  0.98428727    2.7236845   -5.5949611    1.4760618   -4.1188993 
  0.98419012    2.6901627   -5.5949364    1.4759161   -4.1190203 
  0.98969059    2.6559873    -5.603636    1.4841647   -4.1194713 
  0.99766587    2.6520496   -5.6154203    1.4961247   -4.1192956 
  0.99207318     2.697961   -5.6068717    1.4877377    -4.119134 
  0.99220929    2.7029718   -5.6071798    1.4879419   -4.1192379 
  0.99278618    2.6793273   -5.6081556     1.488807   -4.1193487 
  0.98827622    2.6873951     -5.60107    1.4820437   -4.1190263 
  0.99150419    2.6895352   -5.6061917    1.4868845   -4.1193072 
  0.99589036    2.6333614   -5.6125574    1.4934621   -4.1190954 
  0.99471689    2.6346346   -5.6109668    1.4917023   -4.1192645 
  0.99508583    2.6431337   -5.6116853    1.4922556   -4.1194297 
   1.0067033    2.6257064   -5.6289665    1.5096774   -4.1192892 
  0.99307513    2.6924554   -5.6086135    1.4892403   -4.1193733 
  0.99090174    2.6821029   -5.6053152     1.485981   -4.1193342 
  0.98579929    2.7262376   -5.5975849    1.4783293   -4.1192557 
   1.0015526    2.6147995   -5.6211801    1.5019533   -4.1192268 
   1.0013221    2.6391626   -5.6208103    1.5016076   -4.1192027 
  0.99818785      2.63478   -5.6162475    1.4969075   -4.1193401 
  0.99975192    2.6262976   -5.6181471     1.499253   -4.1188941 
  0.99239783    2.6619289   -5.6072421    1.4882246   -4.1190175 
  0.98584705    2.7185807   -5.5978292    1.4784009   -4.1194283 
   1.0022229    2.6279075    -5.621967    1.5029586   -4.1190085 
  0.97890407    2.7887626   -5.5870837     1.467989   -4.1190947 
  0.98723834    2.7223831   -5.5997176    1.4804873   -4.1192303 
   1.0056252    2.6300615   -5.6272822    1.5080607   -4.1192214 
  0.98487992    2.7607823   -5.5961402    1.4769506   -4.1191896 
    1.002457    2.6223959   -5.6225264    1.5033096   -4.1192167 
  0.99539136    2.6558743   -5.6120614    1.4927138   -4.1193477 
  0.99967376    2.6218016   -5.6182397    1.4991358    -4.119104 
  0.99615189    2.6401045   -5.6127349    1.4938543   -4.1188806 
  0.99591232    2.6380347   -5.6126962     1.493495   -4.1192012 
   1.0055198    2.5924353    -5.627391    1.5079026   -4.1194884 
   1.0027114    2.6073687    -5.623147    1.5036911   -4.1194559 
   1.0022857    2.5811903   -5.6224954    1.5030526   -4.1194427 
  0.99989143    2.6158953   -5.6189913    1.4994622   -4.1195291 
    1.015815    2.5272256   -5.6427626    1.5233416    -4.119421 
    1.004215    2.5766234    -5.625035    1.5059459   -4.1190891 
  0.99852332    2.6111818   -5.6165511    1.4974105   -4.1191405 
  0.99643275     2.610343   -5.6133742    1.4942755   -4.1190988 
    1.003279    2.5921408   -5.6235651    1.5045423   -4.1190228 
  0.99507728    2.6543499   -5.6114632    1.4922428   -4.1192205 
  0.99391683    2.6501509   -5.6096772    1.4905025   -4.1191746 
   1.0053782    2.5812326   -5.6270048    1.5076903   -4.1193144 
  0.99341953    2.6560155   -5.6091193    1.4897568   -4.1193625 
   1.0049121     2.570616   -5.6261336    1.5069913   -4.1191422 
  0.99799232    2.6038331   -5.6157692    1.4966142   -4.1191549 
   1.0036917    2.6271004   -5.6244832    1.5051612    -4.119322 
   1.0003071    2.6424596   -5.6195249    1.5000856   -4.1194393 
  0.99056224    2.6935348   -5.6048261    1.4854719   -4.1193542 
   0.9956781    2.6413447   -5.6122764    1.4931438   -4.1191326 
  0.99241057    2.6899838   -5.6074922    1.4882437   -4.1192485 
   0.9897302    2.6839187   -5.6034579    1.4842242   -4.1192338 
  0.99159805     2.651163   -5.6063803    1.4870252   -4.1193551 
  0.98737501    2.7132397   -5.5999173    1.4806922   -4.1192251 
  0.99103627    2.6936044   -5.6054322    1.4861828   -4.1192495 
   1.0015589    2.5978961   -5.6210441    1.5019627   -4.1190814 
  0.98721514    2.7104759    -5.599681    1.4804525   -4.1192285 
  0.98592364     2.716915   -5.5980303    1.4785157   -4.1195145 
Loop time of 9.90119 on 8 procs for 5000 steps with 4000 atoms

Performance: 87262.217 tau/day, 504.990 timesteps/s
59.3% CPU use with 8 MPI tasks x no OpenMP threads

MPI task timing breakdown:
Section |  min time  |  avg time  |  max time  |%varavg| %total
---------------------------------------------------------------
Pair    | 3.4763     | 3.8609     | 4.3743     |  14.9 | 38.99
Neigh   | 0.3273     | 0.3612     | 0.43026    |   5.4 |  3.65
Comm    | 5.0039     | 5.569      | 6.0235     |  14.0 | 56.25
Output  | 0.010189   | 0.03742    | 0.06171    |  12.6 |  0.38
Modify  | 0.044723   | 0.05326    | 0.063193   |   2.9 |  0.54
Other   |            | 0.01933    |            |       |  0.20

Nlocal:    500 ave 505 max 495 min
Histogram: 2 0 1 0 0 1 1 0 1 2
Nghost:    2369.38 ave 2388 max 2358 min
Histogram: 2 1 2 0 0 1 0 1 0 1
Neighs:    32402.8 ave 32830 max 32094 min
Histogram: 2 1 1 0 1 0 1 0 1 1

Total # of neighbors = 259222
Ave neighs/atom = 64.8055
Neighbor list builds = 250
Dangerous builds not checked
Total wall time: 0:00:09
