LAMMPS (11 Aug 2017)
# 3d Lennard-Jones melt

units		lj
atom_style	atomic
boundary p p p

variable	xx equal ${size}
variable	xx equal 10
variable	yy equal ${size}
variable	yy equal 10
variable	zz equal ${size}
variable	zz equal 10


lattice		fcc ${rho}
lattice		fcc 0.643600
Lattice spacing in x,y,z = 1.83857 1.83857 1.83857
region		box block 0 ${xx} 0 ${yy} 0 ${zz}
region		box block 0 10 0 ${yy} 0 ${zz}
region		box block 0 10 0 10 0 ${zz}
region		box block 0 10 0 10 0 10
create_box	1 box
Created orthogonal box = (0 0 0) to (18.3857 18.3857 18.3857)
  2 by 2 by 2 MPI processor grid
create_atoms	1 box
Created 4000 atoms
mass		1 1.0 #39.948

velocity	all create ${T} 1 loop geom dist uniform#create temp seed
velocity	all create 1.100000 1 loop geom dist uniform
timestep    ${dt}
timestep    0.002000

pair_style	lj/cut 3.0
pair_coeff	1 1 1.0 1.0 3.0

neighbor	0.3 bin
neigh_modify	delay 0 every 20 check no

fix	1 all nve

thermo ${Dump}
thermo 50

thermo_style custom temp press pe ke etotal

#dump dump all custom ${Dump} dump.xyz id type x y z vx vy vz
run		${Run}
run		5000
Neighbor list info ...
  update every 20 steps, delay 0 steps, check no
  max neighbors/atom: 2000, page size: 100000
  master list distance cutoff = 3.3
  ghost atom cutoff = 3.3
  binsize = 1.65, bins = 12 12 12
  1 neighbor lists, perpetual/occasional/extra = 1 0 0
  (1) pair lj/cut, perpetual
      attributes: half, newton on
      pair build: half/bin/atomonly/newton
      stencil: half/bin/3d/newton
      bin: standard
Per MPI rank memory allocation (min/avg/max) = 2.645 | 2.645 | 2.645 Mbytes
Temp Press PotEng KinEng TotEng 
         1.1   -4.0873743   -4.7659863    1.6495875   -3.1163988 
  0.92521832   -2.0367494   -4.4869674    1.3874805   -3.0994869 
  0.82188142  -0.53821539   -4.3296631    1.2325139   -3.0971492 
  0.84360886  -0.50347688   -4.3630056    1.2650969   -3.0979087 
  0.84717482   -0.4231084   -4.3687751    1.2704445   -3.0983305 
  0.84229406  -0.29370683   -4.3617011    1.2631252   -3.0985759 
  0.85933168  -0.33836514   -4.3873309    1.2886753   -3.0986556 
  0.86176349  -0.31152571   -4.3910838    1.2923221   -3.0987617 
  0.85611401  -0.29044562   -4.3829346      1.28385   -3.0990847 
  0.85654948  -0.32818391   -4.3835839     1.284503   -3.0990808 
  0.86660606  -0.39032232   -4.3984204    1.2995841   -3.0988363 
  0.85121442  -0.29761161   -4.3754095    1.2765024   -3.0989071 
  0.87103101  -0.40023493    -4.405132    1.3062199   -3.0989121 
  0.86190892   -0.3665493   -4.3914819    1.2925402   -3.0989418 
  0.85779821  -0.35102827   -4.3851862    1.2863756   -3.0988106 
  0.86251354  -0.36528587   -4.3922771    1.2934469   -3.0988303 
  0.84962968  -0.27986835   -4.3730564    1.2741259   -3.0989305 
  0.85604831  -0.30825385   -4.3828775    1.2837514   -3.0991261 
  0.86180948  -0.34143246   -4.3915299     1.292391   -3.0991388 
  0.85959992  -0.32389446   -4.3883104    1.2890775   -3.0992329 
  0.85824537  -0.30056292   -4.3860688    1.2870462   -3.0990226 
  0.86972573  -0.32828935   -4.4034768    1.3042624   -3.0992144 
  0.86863831   -0.3185251   -4.4018376    1.3026317   -3.0992059 
  0.85994898  -0.25486678   -4.3887126     1.289601   -3.0991116 
  0.86572656  -0.26494903   -4.3972249    1.2982652   -3.0989597 
  0.86862895  -0.27193414   -4.4015121    1.3026177   -3.0988944 
  0.86824809  -0.28580713   -4.4011503    1.3020465   -3.0991038 
   0.8689527  -0.33764555   -4.4023174    1.3031032   -3.0992142 
   0.8457989  -0.20295956   -4.3677181    1.2683812   -3.0993369 
  0.86298611  -0.28721373   -4.3933411    1.2941555   -3.0991856 
   0.8578617  -0.26938697   -4.3855633    1.2864709   -3.0990925 
  0.86492985  -0.29233885   -4.3963291    1.2970704   -3.0992587 
  0.86415656  -0.28231228   -4.3951911    1.2959108   -3.0992803 
  0.86319565  -0.26835061   -4.3936535    1.2944698   -3.0991837 
  0.86446983  -0.30535354   -4.3955503    1.2963806   -3.0991698 
  0.86692986  -0.33728683   -4.3990589    1.3000697   -3.0989892 
  0.86347253  -0.29767501   -4.3940869     1.294885   -3.0992019 
  0.85639278  -0.23886822   -4.3834134     1.284268   -3.0991454 
  0.86192689   -0.2653168   -4.3919092    1.2925671    -3.099342 
  0.85824072   -0.2414054   -4.3862433    1.2870392   -3.0992041 
  0.87317037  -0.33089103   -4.4088084    1.3094281   -3.0993803 
  0.86826433  -0.28918649   -4.4011688    1.3020709    -3.099098 
  0.86943289  -0.27766248   -4.4029739    1.3038233   -3.0991506 
  0.87189306  -0.27791754   -4.4065167    1.3075126   -3.0990041 
  0.86901701  -0.25257375   -4.4023946    1.3031996    -3.099195 
   0.8744327  -0.27549201   -4.4106153    1.3113211   -3.0992941 
  0.87124531  -0.27589616    -4.405917    1.3065412   -3.0993758 
   0.8724047  -0.29250823   -4.4073695    1.3082799   -3.0990896 
  0.86719642  -0.26959806   -4.3996672    1.3004694   -3.0991977 
  0.86388078  -0.26474154   -4.3948706    1.2954972   -3.0993734 
  0.86706669  -0.31719569   -4.3996964    1.3002749   -3.0994215 
  0.86116281  -0.28882693   -4.3908493    1.2914213    -3.099428 
  0.87231501  -0.37840631    -4.407336    1.3081454   -3.0991906 
   0.8744435  -0.35995886   -4.4102767    1.3113373   -3.0989394 
  0.85698473  -0.25539833   -4.3842027    1.2851557    -3.099047 
  0.86764119   -0.3077766   -4.4002611    1.3011364   -3.0991247 
  0.85777816  -0.27416609   -4.3854363    1.2863456   -3.0990907 
  0.86185757  -0.29428538   -4.3914714    1.2924632   -3.0990082 
   0.8653605  -0.32391533   -4.3967556    1.2977162   -3.0990394 
  0.85885531  -0.28813875   -4.3870033    1.2879609   -3.0990424 
  0.87184869  -0.33772952   -4.4065359    1.3074461   -3.0990898 
  0.85412857  -0.23508766   -4.3800348    1.2808726   -3.0991623 
  0.86229009  -0.27616716   -4.3921511    1.2931118   -3.0990394 
  0.85871874  -0.25175508   -4.3869056    1.2877561   -3.0991495 
  0.86264168  -0.27566307   -4.3929713     1.293639   -3.0993322 
  0.86882697  -0.32469669   -4.4021782    1.3029147   -3.0992635 
  0.86853225   -0.3399912   -4.4014927    1.3024727     -3.09902 
  0.85662837  -0.27138643   -4.3835769    1.2846213   -3.0989556 
  0.86840129  -0.32674906   -4.4015333    1.3022763    -3.099257 
  0.86817011    -0.319825    -4.401329    1.3019296   -3.0993994 
   0.8684104  -0.29138785   -4.4014325    1.3022899   -3.0991426 
  0.86231745  -0.22403895   -4.3921713    1.2931528   -3.0990185 
  0.86198909  -0.23995063   -4.3920146    1.2926604   -3.0993542 
  0.86304013  -0.28045543   -4.3934247    1.2942366   -3.0991882 
  0.86790412  -0.29577756   -4.4004475    1.3015307   -3.0989168 
  0.87347554  -0.29862852   -4.4088953    1.3098858   -3.0990096 
  0.86605457  -0.27322081   -4.3979252    1.2987571   -3.0991681 
  0.87522795  -0.30020884   -4.4118654    1.3125137   -3.0993517 
  0.87482219  -0.28363001   -4.4112162    1.3119052    -3.099311 
   0.8702987  -0.25128245   -4.4043934    1.3051217   -3.0992717 
  0.87219246  -0.26773884   -4.4073403    1.3079616   -3.0993787 
  0.86469536  -0.24608059   -4.3960811    1.2967188   -3.0993623 
  0.86933775  -0.29924647   -4.4030939    1.3036806   -3.0994133 
  0.87757825  -0.34929459   -4.4154291    1.3160383   -3.0993908 
  0.86642232   -0.2845419   -4.3988041    1.2993086   -3.0994956 
  0.86704819  -0.27703054   -4.3997064    1.3002471   -3.0994592 
  0.86880037  -0.28570435   -4.4025411    1.3028748   -3.0996663 
  0.86524306  -0.26129917   -4.3972019    1.2975401   -3.0996618 
  0.86323428  -0.26644433   -4.3941853    1.2945277   -3.0996576 
  0.87312477  -0.34280265   -4.4089091    1.3093597   -3.0995494 
  0.86177078   -0.2855643   -4.3917015     1.292333   -3.0993685 
  0.87467028   -0.3377635   -4.4110294    1.3116774    -3.099352 
  0.86056651  -0.24052931   -4.3900191     1.290527   -3.0994921 
  0.85995013  -0.25540337   -4.3889276    1.2896027   -3.0993249 
  0.87354301  -0.32428561   -4.4093781    1.3099869   -3.0993912 
  0.85796524  -0.24088619   -4.3858803    1.2866261   -3.0992541 
  0.87577869    -0.318258   -4.4125467    1.3133396   -3.0992071 
  0.86870756  -0.30467352   -4.4019121    1.3027356   -3.0991765 
  0.86794433    -0.342974   -4.4006754     1.301591   -3.0990844 
  0.87370011  -0.36547637   -4.4094896    1.3102225    -3.099267 
  0.86127563  -0.29084492     -4.39092    1.2915905   -3.0993295 
Loop time of 4.50839 on 8 procs for 5000 steps with 4000 atoms

Performance: 191642.644 tau/day, 1109.043 timesteps/s
81.4% CPU use with 8 MPI tasks x no OpenMP threads

MPI task timing breakdown:
Section |  min time  |  avg time  |  max time  |%varavg| %total
---------------------------------------------------------------
Pair    | 2.5598     | 2.7292     | 2.9582     |   6.5 | 60.54
Neigh   | 0.26942    | 0.27991    | 0.2931     |   1.3 |  6.21
Comm    | 1.1915     | 1.4381     | 1.6223     |   9.5 | 31.90
Output  | 0.0024936  | 0.0033937  | 0.0084546  |   3.3 |  0.08
Modify  | 0.039222   | 0.042737   | 0.047016   |   1.4 |  0.95
Other   |            | 0.01504    |            |       |  0.33

Nlocal:    500 ave 527 max 485 min
Histogram: 2 0 2 1 1 1 0 0 0 1
Nghost:    2033.75 ave 2050 max 2013 min
Histogram: 1 0 1 1 1 0 0 1 2 1
Neighs:    24128.1 ave 26648 max 22681 min
Histogram: 2 0 1 2 1 1 0 0 0 1

Total # of neighbors = 193025
Ave neighs/atom = 48.2563
Neighbor list builds = 250
Dangerous builds not checked
Total wall time: 0:00:04
