LAMMPS (11 Aug 2017)
# 3d Lennard-Jones melt

units		lj
atom_style	atomic
boundary p p p

variable	xx equal ${size}
variable	xx equal 10
variable	yy equal ${size}
variable	yy equal 10
variable	zz equal ${size}
variable	zz equal 10


lattice		fcc ${rho}
lattice		fcc 0.227800
Lattice spacing in x,y,z = 2.59917 2.59917 2.59917
region		box block 0 ${xx} 0 ${yy} 0 ${zz}
region		box block 0 10 0 ${yy} 0 ${zz}
region		box block 0 10 0 10 0 ${zz}
region		box block 0 10 0 10 0 10
create_box	1 box
Created orthogonal box = (0 0 0) to (25.9917 25.9917 25.9917)
  2 by 2 by 2 MPI processor grid
create_atoms	1 box
Created 4000 atoms
mass		1 1.0 #39.948

velocity	all create ${T} 1 loop geom dist uniform#create temp seed
velocity	all create 2.420000 1 loop geom dist uniform
timestep    ${dt}
timestep    0.002000

pair_style	lj/cut 3.0
pair_coeff	1 1 1.0 1.0 3.0

neighbor	0.3 bin
neigh_modify	delay 0 every 20 check no

fix	1 all nve

thermo ${Dump}
thermo 50

thermo_style custom temp press pe ke etotal

#dump dump all custom ${Dump} dump.xyz id type x y z vx vy vz
run		${Run}
run		5000
Neighbor list info ...
  update every 20 steps, delay 0 steps, check no
  max neighbors/atom: 2000, page size: 100000
  master list distance cutoff = 3.3
  ghost atom cutoff = 3.3
  binsize = 1.65, bins = 16 16 16
  1 neighbor lists, perpetual/occasional/extra = 1 0 0
  (1) pair lj/cut, perpetual
      attributes: half, newton on
      pair build: half/bin/atomonly/newton
      stencil: half/bin/3d/newton
      bin: standard
Per MPI rank memory allocation (min/avg/max) = 2.61 | 2.61 | 2.61 Mbytes
Temp Press PotEng KinEng TotEng 
        2.42   0.26453532  -0.64535028    3.6290925    2.9837422 
    2.518895   0.22983802  -0.80536214     3.777398    2.9720358 
   2.5284695   0.71724198  -0.82489638    3.7917561    2.9668597 
   2.7106822   0.73266824    -1.099453    4.0650068    2.9655537 
   2.7656796   0.72480711   -1.1822566    4.1474823    2.9652257 
   2.7815101   0.71550272   -1.2064906    4.1712221    2.9647315 
   2.7981937     0.674539   -1.2320746    4.1962412    2.9641665 
   2.8007041    0.6703169   -1.2359446    4.2000059    2.9640613 
    2.803948   0.67857286   -1.2408586    4.2048706    2.9640119 
   2.8135741   0.68702206   -1.2556373     4.219306    2.9636688 
   2.7984828   0.72078135   -1.2328921    4.1966748    2.9637827 
   2.8011677    0.7012849   -1.2370794    4.2007011    2.9636217 
   2.8051216   0.67908789   -1.2429576    4.2066305    2.9636729 
   2.8235104   0.64182341   -1.2706944    4.2342067    2.9635124 
   2.8115402   0.66686151   -1.2526213    4.2162559    2.9636347 
     2.80369   0.69712337     -1.24088    4.2044837    2.9636036 
   2.8056117   0.69888988   -1.2437249    4.2073655    2.9636405 
   2.8315998   0.65901618   -1.2828524    4.2463378    2.9634854 
   2.8311058   0.66576232   -1.2820775    4.2455971    2.9635196 
   2.8225461   0.69620147   -1.2691997    4.2327607     2.963561 
   2.8329152    0.6861812   -1.2851646    4.2483104    2.9631458 
   2.8301809   0.67718688   -1.2810331    4.2442101     2.963177 
   2.8319315   0.66752756   -1.2837336    4.2468352    2.9631016 
   2.8254051   0.67487167   -1.2738826    4.2370481    2.9631655 
   2.8248338   0.67683747   -1.2732372    4.2361914    2.9629543 
   2.8310124   0.66761174   -1.2823727     4.245457    2.9630842 
   2.8270584   0.68375779   -1.2764697    4.2395274    2.9630577 
   2.8234027   0.70203447   -1.2709688    4.2340453    2.9630764 
   2.8292002   0.69654363    -1.279628    4.2427393    2.9631113 
   2.8282979   0.70469147   -1.2781558    4.2413863    2.9632305 
   2.8334035   0.69080409   -1.2858829    4.2490427    2.9631598 
    2.825585   0.68754427   -1.2741823    4.2373179    2.9631356 
   2.8257395   0.68065919   -1.2746986    4.2375496     2.962851 
    2.819734   0.70407216   -1.2659236    4.2285436    2.9626199 
   2.8221095   0.70877254   -1.2694575    4.2321059    2.9626484 
   2.8343256   0.69146559   -1.2877632    4.2504256    2.9626623 
   2.8385643   0.68918635   -1.2940372    4.2567819    2.9627447 
   2.8349837   0.68571887    -1.288521    4.2514124    2.9628913 
   2.8496185    0.6712159    -1.310533    4.2733592    2.9628261 
   2.8488216   0.67581772   -1.3091515    4.2721641    2.9630125 
   2.8401417   0.66516339   -1.2961226    4.2591475    2.9630248 
   2.8364857   0.66277469   -1.2907267    4.2536649    2.9629382 
   2.8281168   0.67884899   -1.2782376    4.2411147     2.962877 
   2.8405892   0.65725678   -1.2969854    4.2598186    2.9628332 
   2.8191076   0.69939328   -1.2647961    4.2276043    2.9628082 
   2.8325929   0.68621793   -1.2850801    4.2478271     2.962747 
   2.8468225   0.65504837   -1.3064154    4.2691662    2.9627507 
    2.820193   0.70507604    -1.266408    4.2292319    2.9628239 
   2.8338257   0.67083565   -1.2866851    4.2496759    2.9629909 
   2.8322556   0.68513167   -1.2841927    4.2473213    2.9631285 
    2.835881   0.67201049   -1.2897581     4.252758        2.963 
   2.8533513   0.64137116   -1.3160968     4.278957    2.9628603 
   2.8245778   0.69726667   -1.2728097    4.2358074    2.9629978 
     2.83357   0.67394653   -1.2862007    4.2492924    2.9630917 
   2.8319592   0.67556064   -1.2838525    4.2468769    2.9630244 
   2.8335224   0.67133031   -1.2862748     4.249221    2.9629462 
   2.8327092   0.66504212   -1.2850723    4.2480016    2.9629292 
   2.8359882   0.66540982   -1.2899673    4.2529188    2.9629516 
   2.8415707   0.67352627   -1.2981358    4.2612905    2.9631548 
   2.8435691    0.6699476   -1.3013285    4.2642872    2.9629587 
      2.8295   0.69720984   -1.2803801    4.2431889    2.9628088 
   2.8430864    0.6823127   -1.3008799    4.2635635    2.9626835 
    2.833799    0.6904276   -1.2870683    4.2496359    2.9625676 
   2.8375963    0.6695573   -1.2926686    4.2553304    2.9626618 
   2.8486045   0.66202565   -1.3090668    4.2718386    2.9627718 
   2.8224576   0.72524369   -1.2698393    4.2326279    2.9627886 
   2.8511238   0.67713293   -1.3128183    4.2756165    2.9627981 
   2.8409538   0.67771882   -1.2976352    4.2603654    2.9627302 
   2.8367203   0.68133301   -1.2912586    4.2540166     2.962758 
   2.8217073   0.70837665   -1.2685531    4.2315028    2.9629497 
   2.8249815   0.69641348   -1.2733814    4.2364128    2.9630315 
   2.8253075   0.66757667   -1.2736896    4.2369018    2.9632121 
   2.8247015    0.6644299   -1.2726736     4.235993    2.9633193 
   2.8241618   0.68865705   -1.2719103    4.2351836    2.9632732 
   2.8286446   0.70378233   -1.2786935    4.2419062    2.9632127 
   2.8343547   0.69642789   -1.2872596    4.2504692    2.9632096 
    2.830503   0.69926636   -1.2813547    4.2446931    2.9633384 
   2.8128194   0.72223672    -1.255039    4.2181742    2.9631353 
   2.8396548   0.66680196   -1.2953768    4.2584174    2.9630406 
   2.8222662   0.69957449   -1.2690482     4.232341    2.9632928 
   2.8358531   0.68538721   -1.2894411    4.2527163    2.9632752 
   2.8591173   0.64286087   -1.3244659    4.2876037    2.9631378 
   2.8326597   0.69803218   -1.2849854    4.2479273    2.9629419 
   2.8238005   0.70020358   -1.2716844    4.2346418    2.9629574 
   2.8320192   0.67588735   -1.2839042    4.2469668    2.9630626 
   2.8224249    0.6838486   -1.2692959    4.2325789     2.963283 
   2.8321735   0.66885835   -1.2838243    4.2471982    2.9633739 
   2.8359783   0.67076051   -1.2896881     4.252904    2.9632159 
   2.8089444   0.71689441     -1.24917    4.2123632    2.9631932 
   2.8315372   0.67210252   -1.2829203     4.246244    2.9633236 
   2.8153758   0.70804954   -1.2586765    4.2220079    2.9633314 
   2.8282478   0.67794505   -1.2779939    4.2413111    2.9633172 
   2.8448794   0.64813808   -1.3030502    4.2662522     2.963202 
   2.8244982   0.68612412   -1.2726343    4.2356881    2.9630538 
   2.8310974   0.67193007   -1.2825363    4.2455845    2.9630482 
   2.8222611   0.68452027   -1.2694129    4.2323333    2.9629204 
   2.8221138    0.6880185   -1.2691504    4.2321124     2.962962 
   2.8213197   0.70078545   -1.2683011    4.2309216    2.9626205 
   2.8289349    0.6944182   -1.2795855    4.2423416    2.9627561 
   2.8242731   0.70650761   -1.2727157    4.2353506    2.9626349 
   2.8310403   0.70147069   -1.2828371    4.2454988    2.9626617 
Loop time of 4.19344 on 8 procs for 5000 steps with 4000 atoms

Performance: 206036.208 tau/day, 1192.339 timesteps/s
51.0% CPU use with 8 MPI tasks x no OpenMP threads

MPI task timing breakdown:
Section |  min time  |  avg time  |  max time  |%varavg| %total
---------------------------------------------------------------
Pair    | 0.96142    | 1.0521     | 1.1946     |   7.3 | 25.09
Neigh   | 0.15952    | 0.18163    | 0.19999    |   3.6 |  4.33
Comm    | 2.7025     | 2.8609     | 2.9649     |   4.9 | 68.22
Output  | 0.032196   | 0.043976   | 0.054253   |   2.9 |  1.05
Modify  | 0.041412   | 0.044095   | 0.051237   |   1.4 |  1.05
Other   |            | 0.01077    |            |       |  0.26

Nlocal:    500 ave 520 max 483 min
Histogram: 2 1 0 2 0 0 0 0 1 2
Nghost:    1236.25 ave 1250 max 1220 min
Histogram: 1 0 1 0 1 1 1 2 0 1
Neighs:    8541.5 ave 9394 max 7944 min
Histogram: 1 3 0 0 1 0 1 1 0 1

Total # of neighbors = 68332
Ave neighs/atom = 17.083
Neighbor list builds = 250
Dangerous builds not checked
Total wall time: 0:00:04
