LAMMPS (11 Aug 2017)
# 3d Lennard-Jones melt

units		lj
atom_style	atomic
boundary p p p

variable	xx equal ${size}
variable	xx equal 10
variable	yy equal ${size}
variable	yy equal 10
variable	zz equal ${size}
variable	zz equal 10


lattice		fcc ${rho}
lattice		fcc 0.861400
Lattice spacing in x,y,z = 1.66834 1.66834 1.66834
region		box block 0 ${xx} 0 ${yy} 0 ${zz}
region		box block 0 10 0 ${yy} 0 ${zz}
region		box block 0 10 0 10 0 ${zz}
region		box block 0 10 0 10 0 10
create_box	1 box
Created orthogonal box = (0 0 0) to (16.6834 16.6834 16.6834)
  2 by 2 by 2 MPI processor grid
create_atoms	1 box
Created 4000 atoms
mass		1 1.0 #39.948

velocity	all create ${T} 1 loop geom dist uniform#create temp seed
velocity	all create 1.760000 1 loop geom dist uniform
timestep    ${dt}
timestep    0.002000

pair_style	lj/cut 3.0
pair_coeff	1 1 1.0 1.0 3.0

neighbor	0.3 bin
neigh_modify	delay 0 every 20 check no

fix	1 all nve

thermo ${Dump}
thermo 50

thermo_style custom temp press pe ke etotal

#dump dump all custom ${Dump} dump.xyz id type x y z vx vy vz
run		${Run}
run		5000
Neighbor list info ...
  update every 20 steps, delay 0 steps, check no
  max neighbors/atom: 2000, page size: 100000
  master list distance cutoff = 3.3
  ghost atom cutoff = 3.3
  binsize = 1.65, bins = 11 11 11
  1 neighbor lists, perpetual/occasional/extra = 1 0 0
  (1) pair lj/cut, perpetual
      attributes: half, newton on
      pair build: half/bin/atomonly/newton
      stencil: half/bin/3d/newton
      bin: standard
Per MPI rank memory allocation (min/avg/max) = 2.643 | 2.643 | 2.643 Mbytes
Temp Press PotEng KinEng TotEng 
        1.76   -4.9448576   -7.0896454      2.63934   -4.4503054 
  0.80994446    1.9593541   -5.6851643     1.214613   -4.4705514 
  0.89996001    1.4122574   -5.8242414    1.3496025   -4.4746389 
   0.9225364    1.2678323   -5.8591049    1.3834586   -4.4756463 
    0.915029    1.2977862   -5.8485207    1.3722004   -4.4763204 
  0.91847853    1.3041931   -5.8537266    1.3773734   -4.4763532 
  0.90503169    1.3854017   -5.8336858    1.3572082   -4.4764776 
  0.92492011    1.2357264    -5.863225    1.3870333   -4.4761917 
   0.8952938    1.4042904   -5.8195197     1.342605   -4.4769147 
   0.9081512    1.3627257   -5.8389279    1.3618862   -4.4770417 
  0.90328446    1.3936293   -5.8314875     1.354588   -4.4768996 
  0.89230473    1.4518164   -5.8152554    1.3381225   -4.4771329 
  0.90367366    1.4002543   -5.8324375    1.3551716   -4.4772659 
  0.91050445    1.3778625   -5.8426038    1.3654152   -4.4771885 
  0.90680876    1.4059702   -5.8372365    1.3598731   -4.4773634 
  0.89019189    1.5021911   -5.8125756     1.334954   -4.4776216 
  0.87128138    1.6313654   -5.7844045    1.3065953   -4.4778092 
   0.8931018    1.5105408   -5.8172245    1.3393178   -4.4779067 
  0.88521705    1.5425034   -5.8053537    1.3274936   -4.4778601 
  0.86419805     1.665954   -5.7739226     1.295973   -4.4779496 
  0.87834442    1.6214427   -5.7952897    1.3171873   -4.4781025 
  0.85753896    1.7540909   -5.7642954    1.2859869   -4.4783085 
  0.87552502    1.6492252   -5.7912873    1.3129592   -4.4783281 
  0.85591443    1.7774223   -5.7621664    1.2835507   -4.4786157 
  0.87170908    1.6985201   -5.7861015    1.3072367   -4.4788648 
  0.86063266    1.7797386   -5.7693558    1.2906263   -4.4787295 
  0.86946945    1.6804768   -5.7827082    1.3038781   -4.4788301 
  0.86371709     1.730055   -5.7738306    1.2952517   -4.4785789 
   0.8643975    1.7452128   -5.7749219    1.2962721   -4.4786498 
  0.86399007     1.742744   -5.7744241    1.2956611    -4.478763 
   0.8599241    1.7564237   -5.7684286    1.2895637   -4.4788649 
  0.87755936    1.6572234   -5.7948466      1.31601   -4.4788366 
  0.86240127     1.749224    -5.772298    1.2932785   -4.4790195 
  0.87127091    1.7042959   -5.7856003    1.3065796   -4.4790206 
  0.85603264    1.8008831   -5.7629318    1.2837279   -4.4792038 
  0.85060325     1.846805   -5.7544118    1.2755859   -4.4788259 
  0.84867547     1.865916   -5.7519225    1.2726949   -4.4792276 
   0.8557885    1.8101614   -5.7624389    1.2833618   -4.4790771 
  0.84873934    1.8226349   -5.7517869    1.2727907   -4.4789962 
  0.85693008    1.7924198   -5.7641015    1.2850738   -4.4790278 
  0.85505646    1.8030326   -5.7613857    1.2822641   -4.4791217 
  0.85640167    1.8156161   -5.7636058    1.2842814   -4.4793245 
  0.85407796    1.8245137   -5.7599249    1.2807967   -4.4791283 
  0.86360447    1.7630282   -5.7742876    1.2950829   -4.4792048 
  0.84903567    1.8638457   -5.7527815    1.2732351   -4.4795464 
  0.85237221    1.8284805   -5.7573081    1.2782387   -4.4790694 
  0.85273198    1.8084619   -5.7578102    1.2787782    -4.479032 
  0.85960422    1.7742386   -5.7682176     1.289084   -4.4791336 
  0.85369045    1.7982149   -5.7594474    1.2802155   -4.4792318 
  0.86260877    1.7581758   -5.7729227    1.2935897    -4.479333 
  0.85584665    1.7901532   -5.7625875     1.283449   -4.4791385 
   0.8578785    1.7475837   -5.7655081     1.286496   -4.4790121 
  0.85563767    1.7828577    -5.762041    1.2831356   -4.4789053 
   0.8603231    1.7494735   -5.7692524     1.290162   -4.4790903 
  0.85817706    1.7729223   -5.7658828    1.2869438    -4.478939 
  0.86348423    1.7286104   -5.7738436    1.2949025    -4.478941 
  0.86577498    1.7116604   -5.7775137    1.2983378   -4.4791759 
  0.84452277    1.8587663   -5.7456715    1.2664675    -4.479204 
   0.8506769      1.82438   -5.7548872    1.2756963   -4.4791908 
  0.85415695    1.8022138    -5.760107    1.2809151   -4.4791918 
  0.86252254    1.7291053   -5.7726529    1.2934604   -4.4791925 
  0.86184777    1.7538687    -5.771869    1.2924485   -4.4794205 
  0.84995852    1.8559205   -5.7538296     1.274619   -4.4792106 
   0.8572275    1.7959351   -5.7646375    1.2855198   -4.4791177 
  0.86146657    1.7913007   -5.7710591    1.2918768   -4.4791823 
  0.86425471    1.7488125   -5.7751656     1.296058   -4.4791077 
  0.85649225     1.785457   -5.7636828    1.2844172   -4.4792656 
  0.86340456    1.7528309   -5.7737649    1.2947831   -4.4789818 
  0.84538957    1.8562489   -5.7469816    1.2677673   -4.4792142 
  0.85125486    1.8273421   -5.7558467    1.2765631   -4.4792836 
  0.85904629    1.7589329   -5.7673195    1.2882473   -4.4790722 
  0.84707164    1.8493906   -5.7492286    1.2702898   -4.4789388 
  0.87263417    1.6840789     -5.78757     1.308624    -4.478946 
  0.84934112    1.8343609   -5.7524635    1.2736932   -4.4787703 
  0.86467449      1.72096   -5.7756904    1.2966875   -4.4790029 
  0.85931783    1.7707377   -5.7676319    1.2886545   -4.4789774 
  0.84102897    1.8679066   -5.7403514    1.2612281   -4.4791233 
  0.86112158    1.7506854   -5.7702162    1.2913595   -4.4788568 
  0.85521747    1.8086863   -5.7615368    1.2825055   -4.4790313 
  0.85216744    1.8197371   -5.7571578    1.2779316   -4.4792262 
  0.86150153    1.7467886   -5.7711966    1.2919292   -4.4792674 
  0.86177645    1.7517718     -5.77136    1.2923415   -4.4790185 
  0.85970049    1.7902575   -5.7683441    1.2892283   -4.4791157 
   0.8472799    1.8754161    -5.749942    1.2706021   -4.4793399 
  0.86158106    1.8055992   -5.7712754    1.2920485   -4.4792269 
  0.85063558    1.8494178   -5.7550042    1.2756344   -4.4793698 
  0.84661203    1.8660832    -5.748861    1.2696006   -4.4792604 
  0.85355824     1.828335   -5.7593237    1.2800173   -4.4793064 
  0.84240542    1.8905149    -5.742575    1.2632922   -4.4792827 
  0.85067323    1.8358283    -5.754928    1.2756908   -4.4792372 
  0.85387356     1.802967   -5.7596961    1.2804901   -4.4792059 
  0.84645608    1.8477448   -5.7484031    1.2693667   -4.4790364 
  0.83865104    1.9052745   -5.7364521    1.2576621     -4.47879 
   0.8651458    1.7334847   -5.7765182    1.2973943   -4.4791239 
   0.8513274    1.8408366   -5.7555899    1.2766719   -4.4789181 
  0.86877483    1.7066936   -5.7815766    1.3028365   -4.4787402 
  0.86238335    1.7357227   -5.7722411    1.2932516   -4.4789895 
  0.86945127    1.6842219   -5.7828061    1.3038509   -4.4789552 
   0.8558535    1.7995713   -5.7625818    1.2834593   -4.4791225 
  0.84889117    1.8547854   -5.7522621    1.2730184   -4.4792437 
   0.8545039    1.8007292   -5.7604668    1.2814354   -4.4790314 
Loop time of 9.80702 on 8 procs for 5000 steps with 4000 atoms

Performance: 88100.168 tau/day, 509.839 timesteps/s
59.7% CPU use with 8 MPI tasks x no OpenMP threads

MPI task timing breakdown:
Section |  min time  |  avg time  |  max time  |%varavg| %total
---------------------------------------------------------------
Pair    | 3.5212     | 3.8533     | 4.7344     |  19.6 | 39.29
Neigh   | 0.32528    | 0.35252    | 0.43048    |   5.4 |  3.59
Comm    | 4.5181     | 5.5071     | 5.8778     |  18.3 | 56.15
Output  | 0.011913   | 0.018138   | 0.027256   |   3.3 |  0.18
Modify  | 0.046605   | 0.054816   | 0.088199   |   5.6 |  0.56
Other   |            | 0.02108    |            |       |  0.21

Nlocal:    500 ave 511 max 487 min
Histogram: 1 0 1 1 0 1 1 2 0 1
Nghost:    2369.88 ave 2387 max 2354 min
Histogram: 1 0 0 1 3 1 1 0 0 1
Neighs:    32451.2 ave 33295 max 31660 min
Histogram: 3 0 0 0 0 1 1 1 1 1

Total # of neighbors = 259610
Ave neighs/atom = 64.9025
Neighbor list builds = 250
Dangerous builds not checked
Total wall time: 0:00:09
