LAMMPS (11 Aug 2017)
# 3d Lennard-Jones melt

units		lj
atom_style	atomic
boundary p p p

variable	xx equal ${size}
variable	xx equal 10
variable	yy equal ${size}
variable	yy equal 10
variable	zz equal ${size}
variable	zz equal 10


lattice		fcc ${rho}
lattice		fcc 0.307000
Lattice spacing in x,y,z = 2.3531 2.3531 2.3531
region		box block 0 ${xx} 0 ${yy} 0 ${zz}
region		box block 0 10 0 ${yy} 0 ${zz}
region		box block 0 10 0 10 0 ${zz}
region		box block 0 10 0 10 0 10
create_box	1 box
Created orthogonal box = (0 0 0) to (23.531 23.531 23.531)
  2 by 2 by 2 MPI processor grid
create_atoms	1 box
Created 4000 atoms
mass		1 1.0 #39.948

velocity	all create ${T} 1 loop geom dist uniform#create temp seed
velocity	all create 2.900000 1 loop geom dist uniform
timestep    ${dt}
timestep    0.002000

pair_style	lj/cut 3.0
pair_coeff	1 1 1.0 1.0 3.0

neighbor	0.3 bin
neigh_modify	delay 0 every 20 check no

fix	1 all nve

thermo ${Dump}
thermo 50

thermo_style custom temp press pe ke etotal

#dump dump all custom ${Dump} dump.xyz id type x y z vx vy vz
run		${Run}
run		5000
Neighbor list info ...
  update every 20 steps, delay 0 steps, check no
  max neighbors/atom: 2000, page size: 100000
  master list distance cutoff = 3.3
  ghost atom cutoff = 3.3
  binsize = 1.65, bins = 15 15 15
  1 neighbor lists, perpetual/occasional/extra = 1 0 0
  (1) pair lj/cut, perpetual
      attributes: half, newton on
      pair build: half/bin/atomonly/newton
      stencil: half/bin/3d/newton
      bin: standard
Per MPI rank memory allocation (min/avg/max) = 2.608 | 2.608 | 2.608 Mbytes
Temp Press PotEng KinEng TotEng 
         2.9   0.16695001   -1.2315918    4.3489125    3.1173207 
   3.0899851   0.22148182   -1.4962981     4.633819    3.1375208 
   2.9980981    1.3475456   -1.3560483    4.4960228    3.1399745 
   3.1737064    1.1998561   -1.6195559    4.7593695    3.1398136 
   3.1781351    1.2425595   -1.6262393    4.7660109    3.1397715 
   3.1774134    1.2410914    -1.625624    4.7649285    3.1393045 
   3.1997609    1.1610859   -1.6597146    4.7984415    3.1387269 
   3.1791192    1.2160855   -1.6288035    4.7674867    3.1386832 
   3.1944058    1.1604616   -1.6517184    4.7904108    3.1386924 
   3.1771716    1.2047749   -1.6256989    4.7645659    3.1388671 
   3.2039188    1.1457109     -1.66575    4.8046767    3.1389267 
   3.1714073    1.2196759   -1.6168973    4.7559216    3.1390243 
   3.1847995    1.1877554   -1.6369823    4.7760049    3.1390226 
   3.1901557    1.1887382    -1.645413    4.7840373    3.1386243 
   3.1860849    1.2356482    -1.639035    4.7779326    3.1388976 
   3.2021673    1.1928218    -1.663688    4.8020501    3.1383621 
   3.1904646     1.197687   -1.6463577    4.7845005    3.1381429 
   3.1767124    1.2170809   -1.6255185    4.7638773    3.1383588 
   3.1953022    1.1876567   -1.6533321     4.791755    3.1384229 
   3.1970245    1.2051628   -1.6560751    4.7943378    3.1382627 
   3.1962335    1.1954553   -1.6548504    4.7931517    3.1383012 
   3.2067745    1.1576934   -1.6705672    4.8089592     3.138392 
   3.2045448    1.1877387   -1.6672265    4.8056155     3.138389 
    3.177681    1.2700064   -1.6267305    4.7653299    3.1385994 
    3.202316    1.1839907    -1.663343    4.8022731    3.1389301 
   3.2045581     1.155535   -1.6668964    4.8056354     3.138739 
   3.1857114    1.2109148   -1.6385461    4.7773725    3.1388264 
   3.2028286    1.1662089   -1.6641218    4.8030419    3.1389201 
   3.2098548    1.1459621   -1.6749384    4.8135786    3.1386402 
    3.194158    1.1864447   -1.6514012    4.7900392     3.138638 
    3.189268     1.205169    -1.644203    4.7827061     3.138503 
   3.1891216    1.2087887   -1.6440402    4.7824865    3.1384464 
   3.1974344    1.2019784   -1.6566133    4.7949526    3.1383393 
   3.1911722    1.1994881   -1.6473236    4.7855617     3.138238 
   3.1900789    1.2193227    -1.645549    4.7839221    3.1383731 
   3.2097959    1.1799877   -1.6752421    4.8134902    3.1382482 
     3.19072    1.2402174   -1.6465487    4.7848835    3.1383347 
   3.1981024    1.2033106   -1.6576437    4.7959543    3.1383105 
   3.2112459    1.1521257   -1.6772198    4.8156647    3.1384449 
   3.2008102    1.1678118    -1.661447     4.800015     3.138568 
   3.1901453    1.1953453   -1.6454804    4.7840217    3.1385414 
   3.2006356    1.1906208   -1.6613945    4.7997532    3.1383587 
   3.1921177     1.210511   -1.6485825    4.7869795     3.138397 
   3.1820199    1.2328759   -1.6335962    4.7718366    3.1382405 
   3.2111958    1.1558653   -1.6774282    4.8155895    3.1381614 
   3.2172266    1.1541977   -1.6863637    4.8246334    3.1382697 
   3.2035662    1.2010435   -1.6656164    4.8041479    3.1385315 
   3.2052214    1.2218083   -1.6684559    4.8066302    3.1381743 
   3.2101143    1.2056932   -1.6757691    4.8139677    3.1381986 
   3.1991138    1.2188798   -1.6593101     4.797471     3.138161 
   3.2108259    1.1691262   -1.6768097    4.8150348    3.1382251 
   3.1996998    1.2241531      -1.6601    4.7983499    3.1382499 
   3.2123752    1.1936209   -1.6791744    4.8173581    3.1381838 
   3.2071866    1.1634583   -1.6714051    4.8095773    3.1381722 
   3.1990129    1.1683941    -1.659395    4.7973198    3.1379248 
   3.2004439    1.1912311   -1.6614338    4.7994657    3.1380319 
   3.2122031    1.1791431   -1.6787458    4.8171001    3.1383543 
   3.2069469    1.1847838   -1.6709452    4.8092177    3.1382725 
   3.2082738    1.1811772   -1.6730766    4.8112076    3.1381309 
   3.2020348    1.1993434   -1.6639568    4.8018515    3.1378947 
   3.2024964    1.1850517   -1.6644651    4.8025436    3.1380786 
   3.2067478    1.1987594   -1.6708814    4.8089191    3.1380377 
   3.1957908    1.2019856   -1.6543381    4.7924878    3.1381497 
   3.1992754    1.1863873   -1.6597441    4.7977134    3.1379693 
   3.1838659     1.231473   -1.6361979    4.7746049     3.138407 
    3.191214    1.2135393   -1.6474287    4.7856242    3.1381955 
    3.204462    1.1851314   -1.6671177    4.8054913    3.1383736 
    3.213705    1.1506263   -1.6810302    4.8193523    3.1383221 
   3.2077707    1.1638253   -1.6723296    4.8104532    3.1381236 
   3.2033319     1.183629   -1.6654612    4.8037966    3.1383354 
   3.1924693    1.2274942   -1.6492182    4.7875068    3.1382886 
   3.2059206    1.2073725   -1.6695173    4.8076787    3.1381615 
   3.1960653    1.2253552   -1.6549252    4.7928994    3.1379742 
   3.2040039    1.2179012   -1.6666431    4.8048043    3.1381612 
   3.1890005    1.2523388    -1.644148    4.7823048    3.1381568 
     3.21945    1.1565865   -1.6896842    4.8279676    3.1382835 
   3.2192846    1.1573174   -1.6894072    4.8277196    3.1383125 
   3.2005599    1.2066312   -1.6612393    4.7996397    3.1384004 
   3.2114574    1.1649464   -1.6773886    4.8159818    3.1385933 
   3.1876024    1.2168529     -1.64158    4.7802082    3.1386282 
   3.1920295    1.2005211   -1.6480771    4.7868473    3.1387702 
   3.1854791    1.1771129   -1.6382255    4.7770241    3.1387985 
   3.1727317    1.2074293   -1.6192458    4.7579078    3.1386619 
   3.1924029    1.1868031   -1.6490338    4.7874073    3.1383734 
    3.195939    1.2059843   -1.6542744      4.79271    3.1384356 
   3.2038659    1.2122317   -1.6660706    4.8045975    3.1385269 
    3.207031    1.1997852    -1.670781    4.8093438    3.1385629 
   3.2062354      1.18576   -1.6700292    4.8081507    3.1381215 
   3.1956723    1.2154874   -1.6540729      4.79231    3.1382371 
   3.2005943    1.1986407   -1.6615218    4.7996913    3.1381694 
   3.1921168    1.1982674   -1.6486501    4.7869781     3.138328 
    3.200852    1.1738079   -1.6619027    4.8000777    3.1381749 
   3.1961692    1.1947119    -1.655296    4.7930553    3.1377592 
   3.2047573    1.2009675   -1.6681127    4.8059342    3.1378215 
    3.205052    1.2116209   -1.6686084    4.8063761    3.1377677 
   3.1875258     1.265309   -1.6420508    4.7800933    3.1380426 
   3.2168669    1.1690496   -1.6859429     4.824094    3.1381511 
   3.2019416    1.1934831   -1.6637019    4.8017117    3.1380098 
   3.2222284    1.1396597   -1.6941375    4.8321342    3.1379968 
   3.2140758    1.1611701   -1.6818011    4.8199084    3.1381073 
   3.1994945    1.1842629   -1.6596081    4.7980419    3.1384338 
Loop time of 6.05782 on 8 procs for 5000 steps with 4000 atoms

Performance: 142625.495 tau/day, 825.379 timesteps/s
46.3% CPU use with 8 MPI tasks x no OpenMP threads

MPI task timing breakdown:
Section |  min time  |  avg time  |  max time  |%varavg| %total
---------------------------------------------------------------
Pair    | 1.3        | 1.3792     | 1.5527     |   6.9 | 22.77
Neigh   | 0.17962    | 0.18661    | 0.19798    |   1.5 |  3.08
Comm    | 4.2525     | 4.4241     | 4.5142     |   4.1 | 73.03
Output  | 0.0059612  | 0.0078993  | 0.014624   |   3.2 |  0.13
Modify  | 0.042401   | 0.04468    | 0.047907   |   0.8 |  0.74
Other   |            | 0.01526    |            |       |  0.25

Nlocal:    500 ave 528 max 472 min
Histogram: 1 0 0 2 2 1 0 0 0 2
Nghost:    1402.5 ave 1419 max 1391 min
Histogram: 3 0 0 2 0 0 0 2 0 1
Neighs:    11436.6 ave 12515 max 10699 min
Histogram: 1 2 1 2 0 0 0 0 0 2

Total # of neighbors = 91493
Ave neighs/atom = 22.8732
Neighbor list builds = 250
Dangerous builds not checked
Total wall time: 0:00:06
