LAMMPS (11 Aug 2017)
# 3d Lennard-Jones melt

units		lj
atom_style	atomic
boundary p p p

variable	xx equal ${size}
variable	xx equal 10
variable	yy equal ${size}
variable	yy equal 10
variable	zz equal ${size}
variable	zz equal 10


lattice		fcc ${rho}
lattice		fcc 0.109000
Lattice spacing in x,y,z = 3.32311 3.32311 3.32311
region		box block 0 ${xx} 0 ${yy} 0 ${zz}
region		box block 0 10 0 ${yy} 0 ${zz}
region		box block 0 10 0 10 0 ${zz}
region		box block 0 10 0 10 0 10
create_box	1 box
Created orthogonal box = (0 0 0) to (33.2311 33.2311 33.2311)
  2 by 2 by 2 MPI processor grid
create_atoms	1 box
Created 4000 atoms
mass		1 1.0 #39.948

velocity	all create ${T} 1 loop geom dist uniform#create temp seed
velocity	all create 1.520000 1 loop geom dist uniform
timestep    ${dt}
timestep    0.002000

pair_style	lj/cut 3.0
pair_coeff	1 1 1.0 1.0 3.0

neighbor	0.3 bin
neigh_modify	delay 0 every 20 check no

fix	1 all nve

thermo ${Dump}
thermo 50

thermo_style custom temp press pe ke etotal

#dump dump all custom ${Dump} dump.xyz id type x y z vx vy vz
run		${Run}
run		5000
Neighbor list info ...
  update every 20 steps, delay 0 steps, check no
  max neighbors/atom: 2000, page size: 100000
  master list distance cutoff = 3.3
  ghost atom cutoff = 3.3
  binsize = 1.65, bins = 21 21 21
  1 neighbor lists, perpetual/occasional/extra = 1 0 0
  (1) pair lj/cut, perpetual
      attributes: half, newton on
      pair build: half/bin/atomonly/newton
      stencil: half/bin/3d/newton
      bin: standard
Per MPI rank memory allocation (min/avg/max) = 2.587 | 2.587 | 2.587 Mbytes
Temp Press PotEng KinEng TotEng 
        1.52   0.13492715  -0.14172505      2.27943    2.1377049 
   1.5282154   0.13313573  -0.15444451      2.29175    2.1373055 
   1.5629564   0.12620908   -0.2076051    2.3438485    2.1362434 
   1.6274131    0.1424561  -0.30238113    2.4405093    2.1381282 
   1.6661643   0.21417357  -0.35937066    2.4986217     2.139251 
   1.7514807   0.19722825  -0.48686573    2.6265643    2.1396986 
   1.7913802   0.18392571  -0.54669979    2.6863986    2.1396988 
   1.8042637   0.18731914  -0.56629312     2.705719    2.1394259 
   1.8179592   0.18775407  -0.58729038    2.7262571    2.1389667 
   1.8175698   0.18870976  -0.58698984    2.7256732    2.1386833 
   1.8218553   0.17985128  -0.59363716    2.7320998    2.1384626 
    1.824324   0.17763517  -0.59745976    2.7358019    2.1383421 
    1.831246   0.17877565  -0.60793762    2.7461823    2.1382447 
   1.8355011     0.187212  -0.61430156    2.7525634    2.1382618 
   1.8414066   0.18681143  -0.62323088    2.7614193    2.1381885 
   1.8452472   0.18514161  -0.62926309    2.7671788    2.1379157 
   1.8370111   0.19051015  -0.61698965    2.7548278    2.1378382 
   1.8488475     0.176534  -0.63485165    2.7725779    2.1377262 
   1.8465956   0.18063621  -0.63155189    2.7692009     2.137649 
   1.8500386   0.17965163  -0.63671464    2.7743641    2.1376495 
   1.8556919   0.18306507  -0.64514648     2.782842    2.1376955 
   1.8589788   0.18696955  -0.65021705     2.787771     2.137554 
   1.8649415   0.18730948  -0.65913518     2.796713    2.1375778 
   1.8719359   0.17964164  -0.66973568    2.8072019    2.1374662 
   1.8645565   0.18679406  -0.65875756    2.7961356    2.1373781 
   1.8658616   0.18395151  -0.66090532    2.7980926    2.1371873 
   1.8677658   0.17766997  -0.66379323    2.8009483    2.1371551 
   1.8646921   0.18255738  -0.65920435    2.7963389    2.1371346 
   1.8691679    0.1794371  -0.66589309    2.8030508    2.1371578 
   1.8664686   0.18334246  -0.66186207    2.7990029    2.1371408 
   1.8645654   0.18895828  -0.65899499    2.7961489    2.1371539 
   1.8705044   0.18567194   -0.6680554    2.8050551    2.1369997 
   1.8727754   0.18284703  -0.67145876    2.8084608     2.137002 
   1.8766634   0.18315088  -0.67737165    2.8142913    2.1369197 
   1.8682649   0.19408506  -0.66479521    2.8016968    2.1369016 
   1.8740084   0.18495002  -0.67343116    2.8103098    2.1368787 
   1.8755108    0.1834523  -0.67580952    2.8125629    2.1367534 
   1.8732454   0.18425686  -0.67236557    2.8091656       2.1368 
   1.8830882   0.17689795  -0.68699937    2.8239261    2.1369267 
   1.8783477   0.18581851  -0.67992323    2.8168172     2.136894 
   1.8875203   0.18449624  -0.69380261    2.8305726      2.13677 
   1.8876027   0.18696845  -0.69400848    2.8306962    2.1366878 
   1.8854754   0.19122877   -0.6908021     2.827506     2.136704 
   1.8825822    0.1925276  -0.68660756    2.8231673    2.1365597 
   1.8885798   0.18149858  -0.69569802    2.8321615    2.1364635 
   1.8897761   0.17792674  -0.69753107    2.8339555    2.1364244 
   1.8856485   0.18620994  -0.69140605    2.8277656    2.1363595 
   1.8852178   0.18988551  -0.69076197    2.8271198    2.1363578 
   1.8936076   0.18132769  -0.70328823    2.8397013    2.1364131 
   1.8947301   0.17686808  -0.70474511    2.8413846    2.1366395 
   1.8864315   0.18624686   -0.6922469    2.8289399     2.136693 
   1.8867313   0.18776354  -0.69278388    2.8293895    2.1366056 
   1.8888426    0.1846603   -0.6959587    2.8325556    2.1365969 
   1.9001739   0.17441879  -0.71295705    2.8495483    2.1365913 
   1.8941921   0.18360212  -0.70391975    2.8405778     2.136658 
   1.9012575   0.18162509  -0.71452993    2.8511733    2.1366434 
   1.8906524   0.19269098  -0.69866158    2.8352696     2.136608 
   1.8953766   0.18278693    -0.705727    2.8423542    2.1366272 
   1.8879963   0.18584656  -0.69470807    2.8312864    2.1365784 
   1.8850364   0.18285739  -0.69021798    2.8268477    2.1366297 
   1.8896191   0.17591111  -0.69711332      2.83372    2.1366067 
   1.8823712   0.18567577  -0.68619835    2.8228509    2.1366525 
   1.8833543   0.18211967  -0.68776326    2.8243252    2.1365619 
   1.8768963   0.18233214  -0.67803028    2.8146405    2.1366103 
   1.8777069   0.17987294  -0.67913233    2.8158562    2.1367238 
   1.8821437     0.178449  -0.68585454    2.8225098    2.1366553 
   1.8804864   0.18536625   -0.6832436    2.8200244    2.1367808 
   1.8826792   0.18868626  -0.68666604    2.8233128    2.1366468 
   1.8845615   0.18933045  -0.68967358    2.8261355    2.1364619 
   1.8959304   0.17662356  -0.70677653    2.8431846     2.136408 
   1.8708656   0.19860236  -0.66921555    2.8055968    2.1363812 
   1.8862795   0.18340612  -0.69231885    2.8287119    2.1363931 
   1.8886759   0.18377939  -0.69583408    2.8323056    2.1364715 
   1.8852659   0.19371622  -0.69078925    2.8271918    2.1364026 
   1.8921578   0.18875927  -0.70113639    2.8375271    2.1363907 
   1.8919619   0.18626368  -0.70085497    2.8372333    2.1363783 
   1.8887533   0.18522293  -0.69602419    2.8324217    2.1363975 
   1.8886877   0.18290661  -0.69589427    2.8323233     2.136429 
   1.9004385   0.17160539  -0.71345854     2.849945    2.1364865 
   1.8871261   0.18728739  -0.69345051    2.8299814    2.1365309 
   1.8847522   0.18987886  -0.68981658    2.8264216     2.136605 
   1.8887901   0.18438467  -0.69585833    2.8324768    2.1366185 
   1.8899723   0.18532778   -0.6976768    2.8342497    2.1365729 
   1.8876686   0.18532655  -0.69415197    2.8307951    2.1366431 
   1.8886339   0.18099393  -0.69564422    2.8322426    2.1365984 
   1.8866062   0.18146535  -0.69262806    2.8292018    2.1365737 
   1.8911736   0.17609779  -0.69952623    2.8360512    2.1365249 
   1.8779383   0.19401145  -0.67973555    2.8162033    2.1364677 
    1.893168   0.18162804  -0.70255026    2.8390421    2.1364918 
   1.8891348   0.18225748  -0.69653305    2.8329938    2.1364608 
     1.88943   0.18522372    -0.696967    2.8334365    2.1364695 
   1.8907357   0.19115548  -0.69899622    2.8353946    2.1363984 
   1.8968406   0.18893381  -0.70810712    2.8445496    2.1364425 
   1.8956095   0.18657345  -0.70630467    2.8427035    2.1363988 
   1.8896643    0.1856451  -0.69740232    2.8337879    2.1363855 
   1.8933899   0.18646222  -0.70305599    2.8393748    2.1363188 
   1.8930263   0.18811221  -0.70256435    2.8388295    2.1362651 
   1.8955181   0.18440754  -0.70632161    2.8425663    2.1362447 
   1.8928943   0.18511607  -0.70226971    2.8386316    2.1363619 
   1.8937656   0.18313509  -0.70353854    2.8399382    2.1363997 
   1.8934509   0.18311956  -0.70319349    2.8394664    2.1362729 
Loop time of 1.69932 on 8 procs for 5000 steps with 4000 atoms

Performance: 508437.781 tau/day, 2942.348 timesteps/s
60.1% CPU use with 8 MPI tasks x no OpenMP threads

MPI task timing breakdown:
Section |  min time  |  avg time  |  max time  |%varavg| %total
---------------------------------------------------------------
Pair    | 0.43192    | 0.49389    | 0.5497     |   5.6 | 29.06
Neigh   | 0.10475    | 0.11304    | 0.12193    |   1.8 |  6.65
Comm    | 0.96478    | 1.0363     | 1.1108     |   4.7 | 60.98
Output  | 0.0040457  | 0.0059209  | 0.011936   |   3.1 |  0.35
Modify  | 0.038929   | 0.042246   | 0.048391   |   1.5 |  2.49
Other   |            | 0.007926   |            |       |  0.47

Nlocal:    500 ave 521 max 472 min
Histogram: 1 0 0 1 0 2 2 1 0 1
Nghost:    854 ave 873 max 847 min
Histogram: 4 1 0 1 0 1 0 0 0 1
Neighs:    4146.38 ave 4247 max 3869 min
Histogram: 1 0 0 0 0 0 2 1 1 3

Total # of neighbors = 33171
Ave neighs/atom = 8.29275
Neighbor list builds = 250
Dangerous builds not checked
Total wall time: 0:00:01
