LAMMPS (11 Aug 2017)
# 3d Lennard-Jones melt

units		lj
atom_style	atomic
boundary p p p

variable	xx equal ${size}
variable	xx equal 10
variable	yy equal ${size}
variable	yy equal 10
variable	zz equal ${size}
variable	zz equal 10


lattice		fcc ${rho}
lattice		fcc 0.584200
Lattice spacing in x,y,z = 1.89889 1.89889 1.89889
region		box block 0 ${xx} 0 ${yy} 0 ${zz}
region		box block 0 10 0 ${yy} 0 ${zz}
region		box block 0 10 0 10 0 ${zz}
region		box block 0 10 0 10 0 10
create_box	1 box
Created orthogonal box = (0 0 0) to (18.9889 18.9889 18.9889)
  2 by 2 by 2 MPI processor grid
create_atoms	1 box
Created 4000 atoms
mass		1 1.0 #39.948

velocity	all create ${T} 1 loop geom dist uniform#create temp seed
velocity	all create 1.160000 1 loop geom dist uniform
timestep    ${dt}
timestep    0.002000

pair_style	lj/cut 3.0
pair_coeff	1 1 1.0 1.0 3.0

neighbor	0.3 bin
neigh_modify	delay 0 every 20 check no

fix	1 all nve

thermo ${Dump}
thermo 50

thermo_style custom temp press pe ke etotal

#dump dump all custom ${Dump} dump.xyz id type x y z vx vy vz
run		${Run}
run		5000
Neighbor list info ...
  update every 20 steps, delay 0 steps, check no
  max neighbors/atom: 2000, page size: 100000
  master list distance cutoff = 3.3
  ghost atom cutoff = 3.3
  binsize = 1.65, bins = 12 12 12
  1 neighbor lists, perpetual/occasional/extra = 1 0 0
  (1) pair lj/cut, perpetual
      attributes: half, newton on
      pair build: half/bin/atomonly/newton
      stencil: half/bin/3d/newton
      bin: standard
Per MPI rank memory allocation (min/avg/max) = 2.645 | 2.645 | 2.645 Mbytes
Temp Press PotEng KinEng TotEng 
        1.16   -3.1851858   -4.0123837     1.739565   -2.2728187 
   1.1080587   -1.8638665   -3.9658617    1.6616725   -2.3041892 
  0.98970774  -0.16362842     -3.78729    1.4841905   -2.3030995 
   1.0278676  -0.11288386   -3.8446344    1.5414159   -2.3032184 
   1.0429008  -0.10401748   -3.8672204    1.5639601   -2.3032602 
   1.0389583 -0.029352845   -3.8613724    1.5580479   -2.3033246 
   1.0503626  -0.03982697   -3.8783076      1.57515   -2.3031576 
   1.0534014 -0.0081758451   -3.8829851    1.5797071   -2.3032781 
   1.0383797   0.11874491   -3.8605678    1.5571801   -2.3033877 
   1.0633662  0.041454802   -3.8980388    1.5946505   -2.3033883 
   1.0565718  0.060273432   -3.8879719    1.5844614   -2.3035105 
    1.050303  0.059848034   -3.8785723    1.5750606   -2.3035117 
   1.0609512 -0.0034749893   -3.8946436    1.5910289   -2.3036147 
   1.0650692 -0.019586726   -3.9008117    1.5972045   -2.3036073 
   1.0537747  0.032197935   -3.8838328    1.5802669   -2.3035659 
    1.064239 -0.023064277   -3.8997245    1.5959594   -2.3037652 
   1.0663613 -0.009646435   -3.9028395    1.5991421   -2.3036974 
   1.0524557  0.097741434   -3.8818425    1.5782889   -2.3035535 
    1.068035  0.040598765   -3.9051951     1.601652   -2.3035431 
   1.0504297   0.10962198   -3.8789083    1.5752506   -2.3036577 
   1.0542898  0.076526281   -3.8848183    1.5810394    -2.303779 
   1.0510766  0.088012465   -3.8798735    1.5762207   -2.3036528 
   1.0483842   0.11480984   -3.8759148    1.5721831   -2.3037317 
    1.054853  0.085867576   -3.8855656     1.581884   -2.3036816 
   1.0662406  0.032648241   -3.9028095    1.5989611   -2.3038483 
   1.0515332   0.10812714   -3.8804245    1.5769054   -2.3035191 
   1.0548537   0.10075396   -3.8855872     1.581885   -2.3037023 
    1.060453  0.061680161   -3.8939934    1.5902818   -2.3037115 
   1.0495839  0.093079914   -3.8775374    1.5739822   -2.3035551 
   1.0628917  0.047987923   -3.8974903     1.593939   -2.3035513 
   1.0530289  0.080544155   -3.8825462    1.5791485   -2.3033976 
   1.0497108  0.078253859   -3.8776654    1.5741726   -2.3034928 
   1.0674476 0.0010836051   -3.9041274    1.6007712   -2.3033562 
   1.0626324   0.03084317   -3.8966786    1.5935501   -2.3031284 
   1.0554877  0.059955925    -3.886137    1.5828358   -2.3033012 
   1.0544721  0.054852516   -3.8847893    1.5813127   -2.3034766 
   1.0645022  0.026337402     -3.89975    1.5963541   -2.3033959 
   1.0681195  0.044017186   -3.9047419    1.6017787   -2.3029632 
   1.0512584   0.10323927   -3.8794736    1.5764934   -2.3029802 
   1.0753052  -0.02010912   -3.9155984    1.6125545   -2.3030439 
    1.065041 0.0093192729   -3.9002903    1.5971621   -2.3031283 
     1.05941  0.026520017   -3.8922308    1.5887177   -2.3035131 
   1.0554185  0.048393899   -3.8862575     1.582732   -2.3035255 
   1.0444127  0.097736067   -3.8698679    1.5662274   -2.3036405 
   1.0611135   0.02406652   -3.8950544    1.5912723   -2.3037821 
   1.0550565  0.025147694   -3.8858483    1.5821891   -2.3036592 
   1.0515221  0.016457121   -3.8803928    1.5768888    -2.303504 
   1.0557401   0.02682727   -3.8867747    1.5832142   -2.3035604 
   1.0523818   0.12736692   -3.8819164     1.578178   -2.3037384 
   1.0613859   0.10388232   -3.8955867    1.5916808   -2.3039059 
   1.0685212  0.044278459   -3.9061583    1.6023811   -2.3037772 
   1.0682594  0.073724827   -3.9057189    1.6019884   -2.3037305 
   1.0570269   0.16411027   -3.8887459     1.585144   -2.3036019 
   1.0684437  0.094369837   -3.9058517    1.6022649   -2.3035868 
   1.0652376  0.085642438   -3.9009364    1.5974569   -2.3034796 
   1.0635386  0.074823624   -3.8984816    1.5949091   -2.3035726 
   1.0765691  0.020370487    -3.917957    1.6144499   -2.3035071 
   1.0671921  0.067566007   -3.9041912    1.6003879   -2.3038033 
    1.063914  0.074230651   -3.8992608     1.595472   -2.3037889 
   1.0680612  0.037953562   -3.9054917    1.6016912   -2.3038005 
   1.0627924  0.069704938   -3.8973662      1.59379   -2.3035762 
   1.0534279   0.11011457   -3.8834404    1.5797468   -2.3036936 
   1.0677447  0.037231738   -3.9048286    1.6012166    -2.303612 
   1.0566935  0.070388237   -3.8885942     1.584644   -2.3039502 
   1.0554745  0.072051816   -3.8864221    1.5828159   -2.3036062 
   1.0584588  0.039050052    -3.890969    1.5872913   -2.3036777 
   1.0549621  0.053273443   -3.8858481    1.5820476   -2.3038005 
   1.0591405  0.070018371   -3.8922497    1.5883135   -2.3039361 
   1.0597874  0.056948785    -3.893129    1.5892837   -2.3038452 
   1.0582973  0.015443058   -3.8908952    1.5870491   -2.3038461 
     1.06141 -0.0091896123   -3.8953666     1.591717   -2.3036495 
   1.0621555 0.0023461195   -3.8963355    1.5928349   -2.3035006 
   1.0525704  0.059378919   -3.8821264    1.5784609   -2.3036655 
   1.0448507  0.079035436   -3.8705761    1.5668843   -2.3036918 
   1.0565515  0.027255967   -3.8880617    1.5844311   -2.3036306 
   1.0584961  0.043261503   -3.8908277    1.5873472   -2.3034806 
   1.0595293  0.034375515   -3.8924813    1.5888966   -2.3035847 
   1.0590704  0.060738649   -3.8917109    1.5882085   -2.3035024 
   1.0591171   0.07357247   -3.8916684    1.5882785     -2.30339 
    1.064239  0.098640345   -3.8993948    1.5959594   -2.3034354 
   1.0533551   0.15661915   -3.8830772    1.5796376   -2.3034396 
   1.0729057  0.027626656   -3.9123776    1.6089563   -2.3034213 
   1.0654195  0.031982422   -3.9013208    1.5977297   -2.3035911 
   1.0568249  0.046806759   -3.8882629     1.584841   -2.3034219 
    1.059285 -0.0020696674   -3.8920508    1.5885303   -2.3035205 
   1.0562267  0.015227188   -3.8871921    1.5839439   -2.3032481 
   1.0542865  0.024897218   -3.8842034    1.5810344   -2.3031691 
   1.0662395 -0.027452382   -3.9021706    1.5989593   -2.3032112 
   1.0645284 -0.012642938   -3.8996072    1.5963934   -2.3032138 
   1.0553978  0.054734956   -3.8861156    1.5827009   -2.3034147 
   1.0664409  0.030983371   -3.9025756    1.5992615   -2.3033142 
   1.0562858  0.088571504    -3.887353    1.5840326   -2.3033203 
   1.0543261  0.073780409   -3.8845814    1.5810938   -2.3034876 
   1.0518882  0.056100059   -3.8807459    1.5774378   -2.3033081 
   1.0590363  0.025250984   -3.8915219    1.5881573   -2.3033646 
   1.0551823  0.052574281   -3.8857253    1.5823777   -2.3033476 
   1.0622586 0.0059752146   -3.8963899    1.5929896   -2.3034003 
   1.0635223 -0.0043288019    -3.898097    1.5948846   -2.3032124 
   1.0532126    0.0453058   -3.8830937    1.5794239   -2.3036697 
   1.0590033  0.037614614   -3.8917281    1.5881079   -2.3036202 
   1.0629914  0.033381312   -3.8976491    1.5940885   -2.3035607 
Loop time of 4.25058 on 8 procs for 5000 steps with 4000 atoms

Performance: 203266.431 tau/day, 1176.310 timesteps/s
79.9% CPU use with 8 MPI tasks x no OpenMP threads

MPI task timing breakdown:
Section |  min time  |  avg time  |  max time  |%varavg| %total
---------------------------------------------------------------
Pair    | 2.29       | 2.456      | 2.6393     |   7.4 | 57.78
Neigh   | 0.26133    | 0.27123    | 0.28438    |   1.6 |  6.38
Comm    | 1.2573     | 1.461      | 1.6381     |  10.5 | 34.37
Output  | 0.0027883  | 0.00605    | 0.013665   |   4.7 |  0.14
Modify  | 0.038396   | 0.041821   | 0.047546   |   1.6 |  0.98
Other   |            | 0.01451    |            |       |  0.34

Nlocal:    500 ave 525 max 473 min
Histogram: 1 0 1 2 0 1 1 0 0 2
Nghost:    1944 ave 1971 max 1897 min
Histogram: 1 0 0 0 0 2 2 1 0 2
Neighs:    21865.8 ave 23647 max 19666 min
Histogram: 1 0 1 0 2 1 0 0 2 1

Total # of neighbors = 174926
Ave neighs/atom = 43.7315
Neighbor list builds = 250
Dangerous builds not checked
Total wall time: 0:00:04
