LAMMPS (11 Aug 2017)
# 3d Lennard-Jones melt

units		lj
atom_style	atomic
boundary p p p

variable	xx equal ${size}
variable	xx equal 10
variable	yy equal ${size}
variable	yy equal 10
variable	zz equal ${size}
variable	zz equal 10


lattice		fcc ${rho}
lattice		fcc 0.049600
Lattice spacing in x,y,z = 4.32042 4.32042 4.32042
region		box block 0 ${xx} 0 ${yy} 0 ${zz}
region		box block 0 10 0 ${yy} 0 ${zz}
region		box block 0 10 0 10 0 ${zz}
region		box block 0 10 0 10 0 10
create_box	1 box
Created orthogonal box = (0 0 0) to (43.2042 43.2042 43.2042)
  2 by 2 by 2 MPI processor grid
create_atoms	1 box
Created 4000 atoms
mass		1 1.0 #39.948

velocity	all create ${T} 1 loop geom dist uniform#create temp seed
velocity	all create 3.200000 1 loop geom dist uniform
timestep    ${dt}
timestep    0.002000

pair_style	lj/cut 3.0
pair_coeff	1 1 1.0 1.0 3.0

neighbor	0.3 bin
neigh_modify	delay 0 every 20 check no

fix	1 all nve

thermo ${Dump}
thermo 50

thermo_style custom temp press pe ke etotal

#dump dump all custom ${Dump} dump.xyz id type x y z vx vy vz
run		${Run}
run		5000
Neighbor list info ...
  update every 20 steps, delay 0 steps, check no
  max neighbors/atom: 2000, page size: 100000
  master list distance cutoff = 3.3
  ghost atom cutoff = 3.3
  binsize = 1.65, bins = 27 27 27
  1 neighbor lists, perpetual/occasional/extra = 1 0 0
  (1) pair lj/cut, perpetual
      attributes: half, newton on
      pair build: half/bin/atomonly/newton
      stencil: half/bin/3d/newton
      bin: standard
Per MPI rank memory allocation (min/avg/max) = 2.598 | 2.598 | 2.598 Mbytes
Temp Press PotEng KinEng TotEng 
         3.2   0.15868032            0       4.7988       4.7988 
   3.2044494   0.15699987 -0.019209805    4.8054724    4.7862626 
   3.2171076   0.15576186 -0.038370776     4.824455    4.7860842 
   3.2437195   0.15951409 -0.078033008    4.8643628    4.7863298 
   3.2573084   0.17871598  -0.09852253    4.8847411    4.7862186 
   3.3098143   0.17284052  -0.17775363    4.9634802    4.7857266 
   3.3290291   0.16875373  -0.20712762    4.9922952    4.7851676 
   3.3362969   0.17066782  -0.21838505    5.0031942    4.7848092 
   3.3456357   0.16966863  -0.23277095    5.0171989     4.784428 
   3.3553063   0.16795885  -0.24751983    5.0317012    4.7841814 
    3.350235   0.17119638  -0.24001935    5.0240961    4.7840768 
   3.3500495   0.17105093  -0.23975434    5.0238179    4.7840636 
   3.3474101   0.17119713  -0.23593837    5.0198599    4.7839215 
   3.3450037   0.17112619  -0.23247996    5.0162511    4.7837712 
   3.3533706   0.16914002  -0.24509543    5.0287983    4.7837029 
   3.3514476   0.17043339  -0.24218127    5.0259147    4.7837334 
   3.3660953   0.16592567  -0.26416567    5.0478807     4.783715 
   3.3638971    0.1682178   -0.2610056    5.0445841    4.7835785 
   3.3670615   0.16704793  -0.26574703    5.0493296    4.7835826 
   3.3722745   0.16667836  -0.27353805    5.0571471    4.7836091 
   3.3643119   0.17011558  -0.26166885    5.0452062    4.7835374 
   3.3649122   0.16968263  -0.26261325    5.0461065    4.7834933 
   3.3677829   0.16848218  -0.26693729    5.0504114    4.7834741 
   3.3663668   0.16859129  -0.26490805    5.0482878    4.7833798 
   3.3577017   0.17023829  -0.25193751    5.0352935     4.783356 
   3.3664619   0.16680065  -0.26508163    5.0484305    4.7833488 
   3.3635663   0.16864835  -0.26069986    5.0440881    4.7833883 
   3.3708582   0.16532788  -0.27154987    5.0550232    4.7834734 
   3.3606259   0.17123935  -0.25611917    5.0396787    4.7835595 
    3.354265    0.1763774  -0.24672175    5.0301396    4.7834179 
   3.3735024   0.16882661  -0.27571403    5.0589885    4.7832745 
   3.3696873   0.16970064  -0.26986856    5.0532673    4.7833988 
   3.3648815   0.17054374  -0.26270234    5.0460604     4.783358 
   3.3694156   0.16683688  -0.26945084    5.0528598     4.783409 
   3.3670641   0.16840113  -0.26588804    5.0493335    4.7834455 
   3.3676258   0.17052475   -0.2667014    5.0501759    4.7834745 
   3.3702077   0.17117899  -0.27062142    5.0540477    4.7834263 
    3.360301   0.17251728  -0.25569796    5.0391914    4.7834934 
   3.3720883   0.16607708  -0.27332488    5.0568679     4.783543 
    3.360179   0.17041951  -0.25536847    5.0390084      4.78364 
   3.3705947   0.16724119  -0.27104976     5.054628    4.7835783 
   3.3690361   0.16712074  -0.26875125    5.0522907    4.7835395 
   3.3631205   0.16738578  -0.25978179    5.0434195    4.7836377 
   3.3552675    0.1704746  -0.24790731     5.031643    4.7837357 
   3.3658653   0.16784955  -0.26378904    5.0475357    4.7837467 
     3.36372   0.16877274  -0.26065774    5.0443187    4.7836609 
   3.3653399   0.16776523  -0.26299406    5.0467479    4.7837538 
   3.3651011   0.16815915  -0.26268436    5.0463898    4.7837054 
   3.3638553   0.17020028  -0.26075249    5.0445215     4.783769 
   3.3713677   0.17014602  -0.27200401    5.0557872    4.7837832 
   3.3687059   0.17243509  -0.26795797    5.0517955    4.7838376 
    3.370209   0.16972614  -0.27027579    5.0540496    4.7837738 
    3.370181   0.16697985  -0.27029324    5.0540077    4.7837145 
   3.3609333   0.17031144   -0.2564639    5.0401397    4.7836758 
   3.3583069   0.17059262  -0.25252485     5.036201    4.7836762 
   3.3693591   0.16621912   -0.2690196    5.0527751    4.7837555 
   3.3715678   0.16599428   -0.2722993    5.0560874    4.7837881 
   3.3642071    0.1674887  -0.26124592    5.0450491    4.7838032 
   3.3709212   0.16609303  -0.27135153    5.0551177    4.7837662 
   3.3673962   0.17003067   -0.2660888    5.0498315    4.7837427 
   3.3721389   0.16837415  -0.27319841    5.0569438    4.7837454 
     3.37031   0.17013951  -0.27048696    5.0542012    4.7837142 
    3.373902   0.16824566  -0.27585548    5.0595878    4.7837323 
   3.3605013   0.17291054   -0.2557364    5.0394918    4.7837554 
   3.3703703   0.16779183  -0.27062838    5.0542916    4.7836632 
   3.3727689   0.16673061  -0.27427227    5.0578886    4.7836164 
   3.3683402   0.16949852  -0.26755757    5.0512471    4.7836895 
   3.3703285   0.16908239  -0.27048839    5.0542288    4.7837405 
   3.3765154   0.16632049  -0.27987523    5.0635069    4.7836317 
   3.3689052   0.16835123  -0.26850526    5.0520944    4.7835892 
   3.3635453   0.16941248  -0.26061743    5.0440566    4.7834391 
   3.3705849   0.16670445  -0.27128393    5.0546134    4.7833295 
   3.3720985   0.16724979  -0.27355695    5.0568832    4.7833262 
   3.3700674   0.16872725  -0.27047118    5.0538373    4.7833661 
   3.3672785   0.16860143  -0.26616874     5.049655    4.7834862 
   3.3669256   0.16967354  -0.26565294    5.0491257    4.7834728 
   3.3685016   0.17104585   -0.2680233    5.0514893     4.783466 
   3.3719295   0.17122478  -0.27313264    5.0566298    4.7834972 
   3.3704971   0.17096996   -0.2709115    5.0544818    4.7835703 
   3.3778186   0.16779036  -0.28190571    5.0654612    4.7835555 
   3.3822975      0.16616  -0.28864739    5.0721779    4.7835305 
   3.3741387   0.17037079  -0.27642642    5.0599427    4.7835163 
   3.3746829   0.17077036   -0.2772684    5.0607588    4.7834904 
   3.3771218   0.16781501  -0.28095416    5.0644163    4.7834622 
   3.3782371   0.16581776  -0.28264918    5.0660888    4.7834396 
   3.3649102   0.17218548  -0.26273906    5.0461035    4.7833644 
   3.3715131   0.16860936  -0.27261308    5.0560053    4.7833922 
   3.3699368    0.1691437  -0.27030628    5.0536415    4.7833352 
   3.3726908   0.16886554  -0.27448868    5.0577715    4.7832828 
   3.3731215   0.16939236  -0.27506464    5.0584173    4.7833527 
   3.3724658   0.16853266  -0.27400202    5.0574341    4.7834321 
   3.3699347    0.1701901  -0.27024122    5.0536383    4.7833971 
   3.3781769     0.166631  -0.28264195    5.0659986    4.7833566 
   3.3763166   0.16764064  -0.27979812    5.0632088    4.7834107 
   3.3700332   0.17154939  -0.27035925     5.053786    4.7834268 
    3.378927   0.16726664  -0.28374522    5.0671233    4.7833781 
   3.3719836    0.1687162  -0.27337275     5.056711    4.7833382 
   3.3723799   0.16911488  -0.27401039    5.0573051    4.7832948 
     3.38108   0.16662491  -0.28712792    5.0703521    4.7832241 
   3.3691938   0.17145953  -0.26927084    5.0525272    4.7832564 
   3.3721546   0.17098106  -0.27360415    5.0569673    4.7833631 
Loop time of 1.25476 on 8 procs for 5000 steps with 4000 atoms

Performance: 688579.271 tau/day, 3984.834 timesteps/s
54.2% CPU use with 8 MPI tasks x no OpenMP threads

MPI task timing breakdown:
Section |  min time  |  avg time  |  max time  |%varavg| %total
---------------------------------------------------------------
Pair    | 0.21854    | 0.24312    | 0.26188    |   2.5 | 19.38
Neigh   | 0.067127   | 0.07219    | 0.0773     |   1.2 |  5.75
Comm    | 0.86204    | 0.87868    | 0.90684    |   1.6 | 70.03
Output  | 0.0048189  | 0.011398   | 0.015199   |   3.3 |  0.91
Modify  | 0.040671   | 0.042416   | 0.04413    |   0.7 |  3.38
Other   |            | 0.006957   |            |       |  0.55

Nlocal:    500 ave 529 max 473 min
Histogram: 1 0 1 1 1 1 2 0 0 1
Nghost:    616.75 ave 652 max 582 min
Histogram: 1 1 0 1 1 0 2 1 0 1
Neighs:    1885.12 ave 2109 max 1623 min
Histogram: 1 0 1 0 2 0 1 1 1 1

Total # of neighbors = 15081
Ave neighs/atom = 3.77025
Neighbor list builds = 250
Dangerous builds not checked
Total wall time: 0:00:01
