LAMMPS (11 Aug 2017)
# 3d Lennard-Jones melt

units		lj
atom_style	atomic
boundary p p p

variable	xx equal ${size}
variable	xx equal 10
variable	yy equal ${size}
variable	yy equal 10
variable	zz equal ${size}
variable	zz equal 10


lattice		fcc ${rho}
lattice		fcc 0.762400
Lattice spacing in x,y,z = 1.73764 1.73764 1.73764
region		box block 0 ${xx} 0 ${yy} 0 ${zz}
region		box block 0 10 0 ${yy} 0 ${zz}
region		box block 0 10 0 10 0 ${zz}
region		box block 0 10 0 10 0 10
create_box	1 box
Created orthogonal box = (0 0 0) to (17.3764 17.3764 17.3764)
  2 by 2 by 2 MPI processor grid
create_atoms	1 box
Created 4000 atoms
mass		1 1.0 #39.948

velocity	all create ${T} 1 loop geom dist uniform#create temp seed
velocity	all create 1.580000 1 loop geom dist uniform
timestep    ${dt}
timestep    0.002000

pair_style	lj/cut 3.0
pair_coeff	1 1 1.0 1.0 3.0

neighbor	0.3 bin
neigh_modify	delay 0 every 20 check no

fix	1 all nve

thermo ${Dump}
thermo 50

thermo_style custom temp press pe ke etotal

#dump dump all custom ${Dump} dump.xyz id type x y z vx vy vz
run		${Run}
run		5000
Neighbor list info ...
  update every 20 steps, delay 0 steps, check no
  max neighbors/atom: 2000, page size: 100000
  master list distance cutoff = 3.3
  ghost atom cutoff = 3.3
  binsize = 1.65, bins = 11 11 11
  1 neighbor lists, perpetual/occasional/extra = 1 0 0
  (1) pair lj/cut, perpetual
      attributes: half, newton on
      pair build: half/bin/atomonly/newton
      stencil: half/bin/3d/newton
      bin: standard
Per MPI rank memory allocation (min/avg/max) = 2.643 | 2.643 | 2.643 Mbytes
Temp Press PotEng KinEng TotEng 
        1.58   -4.9706375   -6.0989529    2.3694075   -3.7295454 
  0.84411527   0.47325243   -5.0076879    1.2658564   -3.7418315 
  0.90892174   0.49046021   -5.1081173    1.3630418   -3.7450755 
  0.93094108   0.37779143   -5.1426747    1.3960625   -3.7466122 
  0.91858291   0.44742056   -5.1250319    1.3775299    -3.747502 
  0.92860665   0.41597825   -5.1401349    1.3925617   -3.7475732 
  0.91567717   0.51366453   -5.1212477    1.3731724   -3.7480753 
  0.91277902   0.56541111    -5.116611    1.3688262   -3.7477847 
  0.92141624   0.51927913   -5.1295444    1.3817788   -3.7477656 
  0.91562844   0.55439434   -5.1211534    1.3730993   -3.7480541 
  0.92494493   0.52858272    -5.135301    1.3870705   -3.7482305 
  0.91919892   0.54980285   -5.1266458    1.3784537   -3.7481921 
  0.91757554   0.55977674    -5.124309    1.3760192   -3.7482898 
  0.92979923   0.49460404   -5.1425308    1.3943502   -3.7481806 
  0.91895931   0.57787287   -5.1262274    1.3780944    -3.748133 
  0.91754917   0.55998674   -5.1238985    1.3759797   -3.7479188 
  0.91414332   0.56721026   -5.1189807    1.3708722   -3.7481085 
  0.91049172   0.58222162   -5.1137665    1.3653961   -3.7483703 
   0.9201627   0.53053767   -5.1283378     1.379899   -3.7484388 
  0.91799031   0.53845915   -5.1251432    1.3766412    -3.748502 
  0.92273805    0.5383607   -5.1321977    1.3837611   -3.7484366 
  0.92709835   0.54692702   -5.1387562    1.3902999   -3.7484564 
  0.91191878   0.63867043   -5.1160842    1.3675362    -3.748548 
  0.92147523   0.58956481   -5.1304787    1.3818673   -3.7486114 
   0.9201197   0.57008388   -5.1283595    1.3798345    -3.748525 
  0.91095878   0.60413848   -5.1144233    1.3660966   -3.7483267 
  0.91848254   0.55566023   -5.1254276    1.3773794   -3.7480482 
  0.92741387   0.52989774   -5.1390134     1.390773   -3.7482404 
  0.92820227   0.50580515   -5.1401975    1.3919553   -3.7482421 
  0.91813774   0.55374963   -5.1251681    1.3768623   -3.7483058 
  0.92559413   0.50977829    -5.136408    1.3880441   -3.7483639 
  0.91701912   0.59324498   -5.1236947    1.3751848   -3.7485099 
  0.91778813   0.59067905   -5.1250686     1.376338   -3.7487305 
  0.91122917   0.63717375   -5.1149016     1.366502   -3.7483996 
  0.92201281   0.56634356   -5.1312195    1.3826735    -3.748546 
  0.92338642   0.54235481    -5.133281    1.3847334   -3.7485476 
  0.91911466   0.52592598    -5.126975    1.3783273   -3.7486477 
  0.92231043   0.51040788   -5.1317652    1.3831198   -3.7486454 
  0.91432691   0.57103874   -5.1196828    1.3711475   -3.7485353 
  0.91847388   0.54039567   -5.1259245    1.3773664   -3.7485581 
  0.90674175    0.6266271   -5.1083758    1.3597726   -3.7486032 
  0.92334713     0.503615   -5.1331852    1.3846744   -3.7485107 
  0.93246164   0.47337246   -5.1469437    1.3983428   -3.7486009 
  0.90990729   0.63017618   -5.1130006    1.3645197   -3.7484809 
  0.91129795   0.62457933   -5.1151234    1.3666052   -3.7485182 
  0.91322566   0.57599199   -5.1181434     1.369496   -3.7486474 
  0.92824567   0.48816143   -5.1405967    1.3920204   -3.7485763 
   0.9198172   0.53619077   -5.1278627    1.3793809   -3.7484818 
  0.91442518   0.59304257   -5.1198343    1.3712949   -3.7485394 
  0.91631677   0.58683796   -5.1224581    1.3741315   -3.7483266 
   0.9139377   0.62053101   -5.1191631    1.3705638   -3.7485993 
  0.92142813   0.56919194   -5.1305462    1.3817967   -3.7487496 
  0.92980973   0.48362243   -5.1429786    1.3943659   -3.7486127 
  0.91878535   0.52623448    -5.126334    1.3778335   -3.7485005 
  0.92167331   0.51180996   -5.1306647    1.3821643   -3.7485003 
  0.91411045   0.53392035    -5.118987    1.3708229   -3.7481641 
  0.92219765   0.47005686   -5.1311189    1.3829506   -3.7481683 
    0.922052   0.44672477   -5.1308371    1.3827322   -3.7481049 
  0.90489539   0.56513283   -5.1049783    1.3570038   -3.7479746 
  0.92334559   0.46160859   -5.1327596    1.3846721   -3.7480875 
  0.92295983   0.46970732    -5.132252    1.3840936   -3.7481584 
  0.91559084   0.54527421   -5.1210723    1.3730429   -3.7480294 
   0.9052352   0.60937042   -5.1057107    1.3575133   -3.7481974 
   0.9199958   0.54115297   -5.1282012    1.3796487   -3.7485524 
  0.90430841   0.60712256   -5.1047367    1.3561235   -3.7486132 
  0.91283579   0.55455571    -5.117477    1.3689114   -3.7485657 
  0.93054477   0.46216207   -5.1440247    1.3954682   -3.7485565 
  0.92453792   0.50635461   -5.1349686    1.3864602   -3.7485084 
  0.91799931   0.53977342   -5.1248748    1.3766547     -3.74822 
  0.93214946   0.44776986   -5.1462773    1.3978746   -3.7484026 
  0.91966521   0.51356055   -5.1273547    1.3791529   -3.7482018 
  0.91017023   0.55537623   -5.1131165     1.364914   -3.7482024 
  0.93004152   0.44872678    -5.142801    1.3947135   -3.7480875 
  0.92105833   0.52945285    -5.129507    1.3812421   -3.7482649 
   0.9246294   0.52725632   -5.1349019    1.3865974   -3.7483046 
  0.92764519   0.51666188   -5.1395071    1.3911199   -3.7483872 
  0.90580218   0.60712209   -5.1067004    1.3583636   -3.7483368 
   0.9256854   0.46708461     -5.13638     1.388181   -3.7481991 
  0.91701752   0.51526896   -5.1237056    1.3751824   -3.7485232 
  0.91578249   0.50106254   -5.1218045    1.3733303   -3.7484741 
  0.94572208   0.38559215   -5.1665248    1.4182285   -3.7482963 
  0.91880126   0.55550038     -5.12609    1.3778573   -3.7482327 
  0.92803591    0.4779568   -5.1399987    1.3917059   -3.7482929 
   0.9200349   0.53970651   -5.1277652    1.3797073   -3.7480579 
  0.91680824   0.59820278   -5.1231868    1.3748686   -3.7483182 
  0.91274249   0.62397782   -5.1170835    1.3687715   -3.7483121 
  0.91539262   0.60704365   -5.1213064    1.3727457   -3.7485607 
  0.91812483   0.55994055   -5.1252992     1.376843   -3.7484562 
  0.91334528   0.59659747   -5.1182917    1.3696754   -3.7486162 
  0.90486714   0.62714367   -5.1056675    1.3569614   -3.7487061 
  0.92103143   0.52857496   -5.1298284    1.3812018   -3.7486266 
  0.92600993    0.5377513   -5.1373339    1.3886676   -3.7486663 
  0.92479688   0.54218083   -5.1352483    1.3868485   -3.7483998 
  0.92437018   0.54294924    -5.134624    1.3862086   -3.7484154 
  0.91765353   0.55021295   -5.1245174    1.3761362   -3.7483812 
   0.9183577   0.55059245    -5.125512    1.3771922   -3.7483198 
  0.92847944   0.50712002   -5.1407215     1.392371   -3.7483506 
  0.92925459   0.50625315   -5.1420439    1.3935334   -3.7485105 
  0.90642747   0.64029801   -5.1078375    1.3593013   -3.7485362 
  0.92090106    0.5472041   -5.1292882    1.3810063    -3.748282 
  0.92123269    0.5528908   -5.1302014    1.3815036   -3.7486978 
Loop time of 6.70291 on 8 procs for 5000 steps with 4000 atoms

Performance: 128899.183 tau/day, 745.944 timesteps/s
68.0% CPU use with 8 MPI tasks x no OpenMP threads

MPI task timing breakdown:
Section |  min time  |  avg time  |  max time  |%varavg| %total
---------------------------------------------------------------
Pair    | 3.1315     | 3.184      | 3.2931     |   2.9 | 47.50
Neigh   | 0.31545    | 0.3272     | 0.34734    |   1.5 |  4.88
Comm    | 2.9919     | 3.1195     | 3.1829     |   3.3 | 46.54
Output  | 0.00385    | 0.011972   | 0.020659   |   4.8 |  0.18
Modify  | 0.041536   | 0.043729   | 0.050763   |   1.3 |  0.65
Other   |            | 0.01654    |            |       |  0.25

Nlocal:    500 ave 506 max 497 min
Histogram: 1 2 2 1 0 0 1 0 0 1
Nghost:    2222.88 ave 2234 max 2217 min
Histogram: 2 2 1 1 0 0 0 1 0 1
Neighs:    28628 ave 29231 max 28229 min
Histogram: 1 1 0 3 2 0 0 0 0 1

Total # of neighbors = 229024
Ave neighs/atom = 57.256
Neighbor list builds = 250
Dangerous builds not checked
Total wall time: 0:00:06
