LAMMPS (11 Aug 2017)
# 3d Lennard-Jones melt

units		lj
atom_style	atomic
boundary p p p

variable	xx equal ${size}
variable	xx equal 10
variable	yy equal ${size}
variable	yy equal 10
variable	zz equal ${size}
variable	zz equal 10


lattice		fcc ${rho}
lattice		fcc 0.406000
Lattice spacing in x,y,z = 2.14377 2.14377 2.14377
region		box block 0 ${xx} 0 ${yy} 0 ${zz}
region		box block 0 10 0 ${yy} 0 ${zz}
region		box block 0 10 0 10 0 ${zz}
region		box block 0 10 0 10 0 10
create_box	1 box
Created orthogonal box = (0 0 0) to (21.4377 21.4377 21.4377)
  2 by 2 by 2 MPI processor grid
create_atoms	1 box
Created 4000 atoms
mass		1 1.0 #39.948

velocity	all create ${T} 1 loop geom dist uniform#create temp seed
velocity	all create 1.040000 1 loop geom dist uniform
timestep    ${dt}
timestep    0.002000

pair_style	lj/cut 3.0
pair_coeff	1 1 1.0 1.0 3.0

neighbor	0.3 bin
neigh_modify	delay 0 every 20 check no

fix	1 all nve

thermo ${Dump}
thermo 50

thermo_style custom temp press pe ke etotal

#dump dump all custom ${Dump} dump.xyz id type x y z vx vy vz
run		${Run}
run		5000
Neighbor list info ...
  update every 20 steps, delay 0 steps, check no
  max neighbors/atom: 2000, page size: 100000
  master list distance cutoff = 3.3
  ghost atom cutoff = 3.3
  binsize = 1.65, bins = 13 13 13
  1 neighbor lists, perpetual/occasional/extra = 1 0 0
  (1) pair lj/cut, perpetual
      attributes: half, newton on
      pair build: half/bin/atomonly/newton
      stencil: half/bin/3d/newton
      bin: standard
Per MPI rank memory allocation (min/avg/max) = 2.645 | 2.645 | 2.645 Mbytes
Temp Press PotEng KinEng TotEng 
        1.04   -1.1358396   -2.0834336      1.55961  -0.52382355 
    1.162166   -1.1146547   -2.2795554    1.7428132  -0.53674216 
   1.1179876   0.12436904   -2.2114956    1.6765621  -0.53493345 
   1.2596417   0.28510688   -2.4218619    1.8889901  -0.53287176 
   1.3263408   0.28698211   -2.5210347    1.9890139   -0.5320208 
   1.3450706    0.3129334   -2.5488495    2.0171015  -0.53174798 
    1.356382    0.2723372   -2.5660062    2.0340643  -0.53194183 
    1.369909   0.22836353   -2.5866223    2.0543497  -0.53227257 
   1.3685684   0.25282306   -2.5848252    2.0523394  -0.53248578 
   1.3715342    0.2620901   -2.5893954     2.056787  -0.53260846 
   1.3655246   0.31090577   -2.5804681    2.0477748  -0.53269324 
   1.3706429   0.29748507   -2.5883017    2.0554504  -0.53285131 
   1.3718435   0.28886055   -2.5902602    2.0572509  -0.53300938 
   1.3796747   0.26183892   -2.6018851    2.0689947   -0.5328904 
   1.3728578   0.29135009   -2.5916498    2.0587718  -0.53287796 
   1.3851367   0.26935731   -2.6100826    2.0771857  -0.53289689 
   1.3786414   0.31201347   -2.6002867    2.0674451  -0.53284161 
   1.3825837   0.30534779   -2.6062349     2.073357  -0.53287791 
   1.3884964   0.25838559   -2.6152061    2.0822239  -0.53298222 
   1.3790519   0.29174939   -2.6012327    2.0680607    -0.533172 
    1.386882   0.27778008   -2.6128783    2.0798029  -0.53307539 
   1.3922625   0.24804736   -2.6210832    2.0878717  -0.53321155 
   1.3894905    0.2886281   -2.6168506    2.0837147  -0.53313588 
   1.3797028   0.36107114   -2.6024773    2.0690369  -0.53344044 
    1.402479   0.27628474   -2.6367674    2.1031926  -0.53357482 
   1.3854708   0.32277875   -2.6114563    2.0776866  -0.53376969 
   1.3890453   0.30939957   -2.6170129    2.0830471  -0.53396576 
   1.3917131   0.31571067   -2.6209933    2.0870477  -0.53394556 
   1.3944915   0.30338051   -2.6252352    2.0912144  -0.53402081 
   1.3974855   0.27915552   -2.6298033    2.0957042  -0.53409908 
    1.397408    0.2777096   -2.6297675     2.095588  -0.53417955 
   1.4016444   0.26123491    -2.636085    2.1019411  -0.53414399 
   1.4129556   0.23337864   -2.6530423    2.1189036  -0.53413867 
   1.4187641   0.23242708   -2.6617344    2.1276141  -0.53412037 
   1.3924451   0.35635186   -2.6222661    2.0881455  -0.53412066 
    1.402038   0.31786041   -2.6366979    2.1025313   -0.5341666 
   1.4100721    0.2622846   -2.6486926    2.1145794  -0.53411315 
   1.4047778   0.30035781   -2.6405299    2.1066399  -0.53388999 
   1.3989513   0.31699303   -2.6318608    2.0979024  -0.53395843 
   1.4107083   0.26219113   -2.6495312    2.1155335   -0.5339977 
    1.407885   0.27755879   -2.6453025    2.1112995  -0.53400298 
   1.4146523   0.28549502   -2.6556754     2.121448   -0.5342274 
   1.4180455   0.30140376   -2.6606605    2.1265364  -0.53412403 
   1.4145173   0.30803775   -2.6554485    2.1212454  -0.53420306 
    1.416031   0.30449277     -2.65803    2.1235155  -0.53451449 
   1.4030939   0.35154066   -2.6386077    2.1041146  -0.53449304 
   1.4150786   0.30298508   -2.6566365    2.1220873  -0.53454924 
   1.4234845   0.25984741   -2.6691877     2.134693  -0.53449469 
   1.4033944   0.34112816   -2.6390551    2.1045654  -0.53448972 
   1.4104261   0.33200237   -2.6497236    2.1151102  -0.53461334 
   1.4215601    0.2980019   -2.6664527     2.131807  -0.53464572 
   1.4187264   0.31027781   -2.6624285    2.1275575  -0.53487097 
   1.4101811   0.34889024   -2.6497555    2.1147428  -0.53501266 
   1.4114676    0.3436295   -2.6513869    2.1166721  -0.53471479 
   1.4173178   0.30941275   -2.6600349    2.1254452  -0.53458968 
   1.4115589   0.29366817   -2.6512965     2.116809  -0.53448751 
    1.403728   0.30403231   -2.6394046    2.1050656  -0.53433899 
   1.4148165   0.25896558   -2.6560029    2.1216942  -0.53430864 
   1.4070241   0.30061745   -2.6443125    2.1100086  -0.53430395 
   1.3975172   0.35422067   -2.6301785    2.0957517  -0.53442677 
   1.4020627    0.3350001   -2.6371652    2.1025682  -0.53459699 
   1.4068483   0.31100562   -2.6442622    2.1097448  -0.53451742 
   1.4072959   0.30203944   -2.6450533    2.1104161  -0.53463721 
   1.4152363   0.29438865   -2.6567985    2.1223237  -0.53447485 
   1.4038189   0.33916926   -2.6394345     2.105202  -0.53423255 
   1.4122511   0.29592273   -2.6523229     2.117847  -0.53447589 
   1.4153256    0.2903682   -2.6568739    2.1224577  -0.53441621 
   1.4149993   0.28898785   -2.6562297    2.1219684  -0.53426137 
   1.4036454   0.32407202   -2.6393253    2.1049418  -0.53438358 
   1.4060719   0.29926351   -2.6430582    2.1085805  -0.53447768 
   1.3998473    0.3223699   -2.6337087     2.099246  -0.53446264 
   1.4167969   0.27456443   -2.6590684     2.124664  -0.53440439 
   1.3953295   0.35233787   -2.6270669     2.092471  -0.53459592 
   1.4034279   0.29327698   -2.6391374    2.1046156  -0.53452182 
   1.3950129   0.30392583   -2.6262764    2.0919963  -0.53428016 
   1.4052612   0.28476294   -2.6420179    2.1073648  -0.53465309 
   1.4011117   0.30469151   -2.6358247    2.1011421   -0.5346826 
   1.4110575    0.2697214   -2.6507727     2.116057  -0.53471567 
   1.4092051   0.32524304    -2.647792    2.1132792  -0.53451284 
   1.3995507   0.36952175   -2.6331421    2.0988012  -0.53434089 
   1.4110521   0.29128783   -2.6503183     2.116049   -0.5342693 
   1.4104575   0.28171994   -2.6495268    2.1151573  -0.53436951 
   1.3899138    0.3451389   -2.6188835    2.0843496    -0.534534 
   1.4057373    0.2688446   -2.6425867    2.1080789  -0.53450783 
   1.3968721   0.28751895    -2.629213    2.0947844  -0.53442866 
   1.3918835   0.29262702   -2.6216879    2.0873033  -0.53438468 
   1.3949358   0.28860247   -2.6262685    2.0918805  -0.53438792 
   1.3967171   0.30496485   -2.6291167    2.0945519  -0.53456481 
   1.4002187   0.30448553   -2.6344136    2.0998029  -0.53461067 
   1.4016131   0.30918258   -2.6364317     2.101894   -0.5345377 
   1.4089358   0.29041376   -2.6472992    2.1128754  -0.53442381 
   1.3982853   0.34360006   -2.6311918    2.0969036  -0.53428819 
   1.4070101   0.32919919    -2.644164    2.1099875  -0.53417647 
   1.4127391   0.29760217   -2.6526944    2.1185789  -0.53411553 
   1.3994062   0.32347062   -2.6328695    2.0985845  -0.53428499 
   1.3992275   0.30942475   -2.6325321    2.0983166   -0.5342155 
   1.4180579   0.24084027   -2.6607635    2.1265551  -0.53420842 
   1.3960701    0.3599602   -2.6279508    2.0935816   -0.5343692 
   1.4067501   0.33686016   -2.6438595    2.1095975  -0.53426198 
   1.4109147   0.31419404   -2.6499773     2.115843  -0.53413432 
   1.4115362   0.29249062   -2.6509235    2.1167749  -0.53414858 
Loop time of 6.09558 on 8 procs for 5000 steps with 4000 atoms

Performance: 141741.946 tau/day, 820.266 timesteps/s
52.9% CPU use with 8 MPI tasks x no OpenMP threads

MPI task timing breakdown:
Section |  min time  |  avg time  |  max time  |%varavg| %total
---------------------------------------------------------------
Pair    | 1.6383     | 1.8403     | 2.129      |  11.5 | 30.19
Neigh   | 0.21545    | 0.2459     | 0.28383    |   4.3 |  4.03
Comm    | 3.6124     | 3.9309     | 4.1591     |   8.8 | 64.49
Output  | 0.01021    | 0.016875   | 0.026805   |   4.2 |  0.28
Modify  | 0.042212   | 0.04797    | 0.058585   |   2.2 |  0.79
Other   |            | 0.01373    |            |       |  0.23

Nlocal:    500 ave 526 max 453 min
Histogram: 1 0 0 1 0 1 2 0 0 3
Nghost:    1603.88 ave 1668 max 1564 min
Histogram: 2 1 1 1 0 1 1 0 0 1
Neighs:    15280 ave 16720 max 13074 min
Histogram: 1 1 0 0 0 2 0 0 2 2

Total # of neighbors = 122240
Ave neighs/atom = 30.56
Neighbor list builds = 250
Dangerous builds not checked
Total wall time: 0:00:06
