LAMMPS (11 Aug 2017)
# 3d Lennard-Jones melt

units		lj
atom_style	atomic
boundary p p p

variable	xx equal ${size}
variable	xx equal 10
variable	yy equal ${size}
variable	yy equal 10
variable	zz equal ${size}
variable	zz equal 10


lattice		fcc ${rho}
lattice		fcc 0.208000
Lattice spacing in x,y,z = 2.67916 2.67916 2.67916
region		box block 0 ${xx} 0 ${yy} 0 ${zz}
region		box block 0 10 0 ${yy} 0 ${zz}
region		box block 0 10 0 10 0 ${zz}
region		box block 0 10 0 10 0 10
create_box	1 box
Created orthogonal box = (0 0 0) to (26.7916 26.7916 26.7916)
  2 by 2 by 2 MPI processor grid
create_atoms	1 box
Created 4000 atoms
mass		1 1.0 #39.948

velocity	all create ${T} 1 loop geom dist uniform#create temp seed
velocity	all create 1.700000 1 loop geom dist uniform
timestep    ${dt}
timestep    0.002000

pair_style	lj/cut 3.0
pair_coeff	1 1 1.0 1.0 3.0

neighbor	0.3 bin
neigh_modify	delay 0 every 20 check no

fix	1 all nve

thermo ${Dump}
thermo 50

thermo_style custom temp press pe ke etotal

#dump dump all custom ${Dump} dump.xyz id type x y z vx vy vz
run		${Run}
run		5000
Neighbor list info ...
  update every 20 steps, delay 0 steps, check no
  max neighbors/atom: 2000, page size: 100000
  master list distance cutoff = 3.3
  ghost atom cutoff = 3.3
  binsize = 1.65, bins = 17 17 17
  1 neighbor lists, perpetual/occasional/extra = 1 0 0
  (1) pair lj/cut, perpetual
      attributes: half, newton on
      pair build: half/bin/atomonly/newton
      stencil: half/bin/3d/newton
      bin: standard
Per MPI rank memory allocation (min/avg/max) = 2.61 | 2.61 | 2.61 Mbytes
Temp Press PotEng KinEng TotEng 
         1.7   0.13345624  -0.54029762    2.5493625    2.0090649 
   1.7515399   0.11544601  -0.62060134    2.6266531    2.0060517 
    1.858762   0.23303391  -0.78780154     2.787446    1.9996444 
   1.9449913   0.46716827  -0.91950916    2.9167576    1.9972484 
   2.0606806   0.45324085   -1.0935114    3.0902481    1.9967367 
    2.091972   0.46267416   -1.1407112    3.1371736    1.9964623 
   2.1270959   0.41541163   -1.1936027    3.1898462    1.9962435 
   2.1277796   0.41976159   -1.1948208    3.1908715    1.9960507 
   2.1217487   0.44347779   -1.1860903    3.1818274    1.9957371 
   2.1447993     0.398733   -1.2208684    3.2163947    1.9955263 
    2.137348   0.40333379   -1.2099109    3.2052204    1.9953095 
   2.1373593   0.41409437   -1.2100732    3.2052374    1.9951642 
   2.1340757   0.43792246   -1.2052289    3.2003133    1.9950844 
   2.1465287   0.41283689   -1.2239639    3.2189881    1.9950242 
   2.1428679   0.41314671   -1.2184679    3.2134983    1.9950304 
   2.1461565   0.40495307   -1.2235503    3.2184299    1.9948796 
   2.1437007    0.4102593   -1.2198791    3.2147471     1.994868 
   2.1515265   0.41229858   -1.2316651    3.2264829    1.9948178 
    2.149176   0.43627973   -1.2283647     3.222958    1.9945933 
   2.1537538   0.43172534   -1.2352376     3.229823    1.9945854 
    2.157964   0.41941102   -1.2416017    3.2361367     1.994535 
   2.1515695   0.42195055   -1.2320016    3.2265474    1.9945458 
   2.1643118   0.40315208   -1.2510119    3.2456561    1.9946442 
   2.1577093   0.42030315   -1.2412538    3.2357547     1.994501 
   2.1555588   0.42864222   -1.2380742    3.2325298    1.9944556 
   2.1604264   0.42292598   -1.2452698    3.2398294    1.9945596 
    2.160228   0.41330237   -1.2448916    3.2395319    1.9946403 
   2.1672607   0.40396241   -1.2554634    3.2500783     1.994615 
   2.1632605    0.4215205   -1.2495039    3.2440795    1.9945756 
   2.1729837   0.41233266   -1.2641662    3.2586607    1.9944945 
   2.1632782   0.44090527   -1.2496689    3.2441061    1.9944372 
   2.1736367   0.42782195   -1.2652048      3.25964    1.9944352 
    2.167339   0.42965978   -1.2558818    3.2501958     1.994314 
   2.1701817   0.40764243   -1.2601927    3.2544587     1.994266 
   2.1599667   0.43241993   -1.2448949    3.2391401    1.9942452 
   2.1774376   0.39964356   -1.2712226    3.2653399    1.9941173 
   2.1664047   0.41134274   -1.2546075    3.2487946    1.9941871 
   2.1736164   0.40033864    -1.265629    3.2596094    1.9939804 
   2.1805759   0.39751342   -1.2759078    3.2700462    1.9941383 
   2.1680096   0.43338867    -1.257198    3.2512015    1.9940035 
   2.1581376   0.46259764   -1.2424155    3.2363971    1.9939817 
   2.1810443   0.41456678   -1.2770088    3.2707486    1.9937397 
   2.1838544   0.39955946   -1.2811262    3.2749627    1.9938365 
   2.1812726   0.40369515   -1.2773041     3.271091    1.9937869 
    2.163169   0.43428521   -1.2500498    3.2439423    1.9938925 
   2.1764136   0.39817665    -1.269767    3.2638042    1.9940372 
   2.1697133   0.40042301    -1.259866    3.2537563    1.9938903 
   2.1607529   0.42333483   -1.2465584    3.2403191    1.9937607 
   2.1760954   0.41543697   -1.2696071     3.263327    1.9937199 
   2.1721991   0.42150751   -1.2637708    3.2574841    1.9937133 
    2.190463   0.39018711   -1.2911679    3.2848731    1.9937053 
    2.173272   0.42449261   -1.2654974     3.259093    1.9935956 
   2.1693367    0.4341646   -1.2595374    3.2531916    1.9936541 
   2.1855694    0.3991222   -1.2838764    3.2775345    1.9936581 
    2.163619    0.4388497   -1.2507832    3.2446171    1.9938339 
   2.1704137   0.41466045   -1.2610928    3.2548067    1.9937139 
   2.1682469   0.40842517   -1.2577018    3.2515572    1.9938554 
   2.1654554    0.4133112   -1.2534446    3.2473711    1.9939264 
   2.1677908   0.40831986    -1.256984    3.2508732    1.9938892 
   2.1668298    0.4237446   -1.2553631    3.2494322     1.994069 
   2.1566907   0.46214509   -1.2403286    3.2342273    1.9938986 
   2.1579623   0.44399908   -1.2421447    3.2361341    1.9939895 
   2.1771006   0.38923988   -1.2706723    3.2648345    1.9941622 
   2.1588993   0.43182635   -1.2435462    3.2375393    1.9939932 
   2.1708025   0.42477828   -1.2614324    3.2553897    1.9939574 
   2.1783008   0.41711412   -1.2726245    3.2666343    1.9940098 
   2.1743018   0.42514142   -1.2668093    3.2606374    1.9938281 
   2.1788673   0.40961968    -1.273724    3.2674838    1.9937598 
   2.1792394    0.4068677   -1.2744182    3.2680419    1.9936237 
   2.1696128   0.42823763   -1.2598864    3.2536055    1.9937191 
   2.1688048   0.43324041   -1.2586574     3.252394    1.9937365 
   2.1721152   0.43548822   -1.2634774    3.2573583    1.9938808 
   2.1733998   0.43912901   -1.2654728    3.2592847    1.9938118 
   2.1802683   0.42310001   -1.2757098    3.2695848     1.993875 
   2.1735866   0.43242422   -1.2654937    3.2595649    1.9940712 
   2.1650678    0.4307436   -1.2528109    3.2467898    1.9939789 
   2.1780792   0.39235026   -1.2723935     3.266302    1.9939085 
   2.1544191   0.43207632   -1.2371253    3.2308208    1.9936955 
   2.1610968   0.41784638   -1.2470891    3.2408348    1.9937458 
    2.160869   0.42217125    -1.246639    3.2404931    1.9938541 
   2.1756363   0.41160728   -1.2686515    3.2626386    1.9939871 
   2.1838556   0.40288163   -1.2809037    3.2749644    1.9940607 
   2.1718653   0.42773156   -1.2630265    3.2569835     1.993957 
   2.1747313   0.41342269   -1.2673369    3.2612815    1.9939446 
    2.164276   0.42744542   -1.2515343    3.2456024    1.9940681 
   2.1609974   0.43560156   -1.2466265    3.2406858    1.9940593 
   2.1817425   0.38645446   -1.2778346    3.2717956     1.993961 
   2.1663772   0.39937824   -1.2546753    3.2487535    1.9940781 
   2.1642789   0.41221822   -1.2514163    3.2456068    1.9941906 
   2.1721725   0.40374475   -1.2634353    3.2574442    1.9940089 
   2.1482917   0.46040479    -1.227681     3.221632     1.993951 
   2.1640558   0.43341004   -1.2512597    3.2452722    1.9940125 
   2.1635186   0.42623875   -1.2503722    3.2444666    1.9940943 
   2.1656585   0.42660779   -1.2536303    3.2476756    1.9940454 
   2.1491665   0.45525422   -1.2289588    3.2229438    1.9939849 
   2.1663897   0.41710744   -1.2546691    3.2487722     1.994103 
   2.1731912   0.41413881   -1.2648363    3.2589719    1.9941356 
   2.1732361   0.41888142   -1.2649119    3.2590392    1.9941273 
   2.1738536   0.41970893   -1.2659898    3.2599653    1.9939754 
   2.1838353   0.40048329   -1.2807658     3.274934    1.9941682 
   2.1730951   0.42218473   -1.2645658    3.2588278    1.9942619 
Loop time of 2.43574 on 8 procs for 5000 steps with 4000 atoms

Performance: 354717.329 tau/day, 2052.762 timesteps/s
65.6% CPU use with 8 MPI tasks x no OpenMP threads

MPI task timing breakdown:
Section |  min time  |  avg time  |  max time  |%varavg| %total
---------------------------------------------------------------
Pair    | 0.85376    | 0.90923    | 0.99336    |   4.3 | 37.33
Neigh   | 0.14653    | 0.15366    | 0.16132    |   1.1 |  6.31
Comm    | 1.2216     | 1.3144     | 1.3822     |   4.1 | 53.96
Output  | 0.0028188  | 0.0074446  | 0.01993    |   5.8 |  0.31
Modify  | 0.039443   | 0.041514   | 0.043372   |   0.7 |  1.70
Other   |            | 0.009533   |            |       |  0.39

Nlocal:    500 ave 531 max 483 min
Histogram: 2 1 2 0 1 0 1 0 0 1
Nghost:    1150 ave 1177 max 1123 min
Histogram: 1 1 2 0 1 0 0 0 0 3
Neighs:    7796.62 ave 8657 max 7379 min
Histogram: 3 1 1 0 1 0 1 0 0 1

Total # of neighbors = 62373
Ave neighs/atom = 15.5932
Neighbor list builds = 250
Dangerous builds not checked
Total wall time: 0:00:02
