LAMMPS (11 Aug 2017)
# 3d Lennard-Jones melt

units		lj
atom_style	atomic
boundary p p p

variable	xx equal ${size}
variable	xx equal 10
variable	yy equal ${size}
variable	yy equal 10
variable	zz equal ${size}
variable	zz equal 10


lattice		fcc ${rho}
lattice		fcc 0.128800
Lattice spacing in x,y,z = 3.14327 3.14327 3.14327
region		box block 0 ${xx} 0 ${yy} 0 ${zz}
region		box block 0 10 0 ${yy} 0 ${zz}
region		box block 0 10 0 10 0 ${zz}
region		box block 0 10 0 10 0 10
create_box	1 box
Created orthogonal box = (0 0 0) to (31.4327 31.4327 31.4327)
  2 by 2 by 2 MPI processor grid
create_atoms	1 box
Created 4000 atoms
mass		1 1.0 #39.948

velocity	all create ${T} 1 loop geom dist uniform#create temp seed
velocity	all create 1.700000 1 loop geom dist uniform
timestep    ${dt}
timestep    0.002000

pair_style	lj/cut 3.0
pair_coeff	1 1 1.0 1.0 3.0

neighbor	0.3 bin
neigh_modify	delay 0 every 20 check no

fix	1 all nve

thermo ${Dump}
thermo 50

thermo_style custom temp press pe ke etotal

#dump dump all custom ${Dump} dump.xyz id type x y z vx vy vz
run		${Run}
run		5000
Neighbor list info ...
  update every 20 steps, delay 0 steps, check no
  max neighbors/atom: 2000, page size: 100000
  master list distance cutoff = 3.3
  ghost atom cutoff = 3.3
  binsize = 1.65, bins = 20 20 20
  1 neighbor lists, perpetual/occasional/extra = 1 0 0
  (1) pair lj/cut, perpetual
      attributes: half, newton on
      pair build: half/bin/atomonly/newton
      stencil: half/bin/3d/newton
      bin: standard
Per MPI rank memory allocation (min/avg/max) = 2.615 | 2.615 | 2.615 Mbytes
Temp Press PotEng KinEng TotEng 
         1.7   0.16847471  -0.19742202    2.5493625    2.3519405 
   1.7150877   0.16393605  -0.22362517    2.5719884    2.3483632 
   1.7800729   0.15123683  -0.32248414    2.6694418    2.3469577 
    1.832694   0.23795878  -0.40117796    2.7483537    2.3471757 
   1.9211647   0.27684128   -0.5333421    2.8810266    2.3476845 
     1.99454   0.25314387  -0.64332787    2.9910621    2.3477342 
    2.023145   0.25025968  -0.68670423    3.0339588    2.3472545 
   2.0350651   0.25388194  -0.70504189    3.0518346    2.3467927 
   2.0479501    0.2507009  -0.72457503    3.0711572    2.3465822 
   2.0462903   0.25057219  -0.72224304     3.068668     2.346425 
   2.0528983   0.24208284  -0.73230425    3.0785776    2.3462733 
   2.0523455   0.25074491  -0.73157794    3.0777487    2.3461707 
     2.05555    0.2539427  -0.73649048    3.0825541    2.3460637 
   2.0658578     0.243062   -0.7519552     3.098012    2.3460568 
   2.0503416   0.25962573  -0.72883997    3.0747435    2.3459035 
   2.0629569   0.24591411  -0.74766252    3.0936618    2.3459992 
   2.0697505    0.2426576   -0.7579803    3.1038496    2.3458693 
   2.0648742   0.25184408  -0.75062785    3.0965369    2.3459091 
   2.0695158   0.25302662  -0.75772503    3.1034976    2.3457726 
   2.0810636    0.2434082  -0.77501156     3.120815    2.3458034 
   2.0739547   0.25063845  -0.76448441    3.1101544      2.34567 
   2.0746089   0.24918279  -0.76544801    3.1111353    2.3456873 
   2.0757265   0.25353057   -0.7672029    3.1128114    2.3456085 
   2.0811125   0.25036051  -0.77537359    3.1208883    2.3455147 
   2.0775548   0.25691931  -0.77003914    3.1155532     2.345514 
   2.0835226    0.2482641  -0.77893657    3.1245025     2.345566 
   2.0813951   0.24296719  -0.77579877    3.1213122    2.3455134 
   2.0786912    0.2440658   -0.7718247    3.1172573    2.3454326 
   2.0782386   0.24417516  -0.77114719    3.1165786    2.3454314 
   2.0623082   0.25724831  -0.74736001    3.0926889    2.3453289 
   2.0687935   0.24507826  -0.75709717    3.1024145    2.3453174 
   2.0754827     0.240482  -0.76717286    3.1124457    2.3452728 
   2.0789528     0.245354   -0.7724091    3.1176496    2.3452406 
   2.0824289   0.24983472  -0.77747784    3.1228624    2.3453845 
    2.091636     0.244467  -0.79127932    3.1366696    2.3453903 
   2.0900073   0.24861543  -0.78897574    3.1342272    2.3452514 
   2.0874615   0.25459806  -0.78516248    3.1304094    2.3452469 
   2.0723563   0.26589886   -0.7626924    3.1077573    2.3450649 
   2.0807859   0.24910029  -0.77546381    3.1203986    2.3449348 
   2.0843448   0.24541298  -0.78077642    3.1257356    2.3449592 
   2.0833648   0.24811352  -0.77926754    3.1242659    2.3449984 
   2.0785988   0.25177177  -0.77226467    3.1171188    2.3448541 
   2.0803935   0.24736798  -0.77492518    3.1198101    2.3448849 
   2.0808698   0.24100369  -0.77576675    3.1205244    2.3447577 
   2.0816629   0.24165309  -0.77685302    3.1217138    2.3448608 
   2.0859515   0.24556597  -0.78331404     3.128145    2.3448309 
   2.0902359   0.25035666  -0.78981908    3.1345701     2.344751 
   2.0885345   0.25716592  -0.78733973    3.1320185    2.3446788 
   2.0976985   0.25175573  -0.80117782    3.1457612    2.3445834 
   2.0930847   0.25856613  -0.79428719    3.1388421    2.3445549 
   2.0959086    0.2595963  -0.79862351     3.143077    2.3444535 
   2.0952339   0.25174683  -0.79750689    3.1420652    2.3445583 
   2.0981663   0.23722164  -0.80188291    3.1464626    2.3445797 
   2.0882455    0.2480421  -0.78688036    3.1315851    2.3447048 
   2.0871758   0.25245173  -0.78512997     3.129981     2.344851 
   2.0889126    0.2532643  -0.78779019    3.1325856    2.3447954 
   2.0885608   0.25300424  -0.78734221    3.1320579    2.3447157 
   2.0872367   0.24780464  -0.78538214    3.1300723    2.3446902 
   2.0930969   0.23651279  -0.79408787    3.1388605    2.3447726 
   2.0895909   0.24454555  -0.78883434    3.1336027    2.3447684 
   2.0928657   0.24619975  -0.79371817    3.1385137    2.3447955 
   2.0965053   0.25071022   -0.7991056    3.1439717    2.3448661 
   2.0920829   0.25376483    -0.792396    3.1373399    2.3449439 
   2.0922044   0.24234631  -0.79258952     3.137522    2.3449325 
   2.0922463   0.24091816  -0.79255747    3.1375848    2.3450273 
   2.0888386   0.24762493  -0.78750893    3.1324745    2.3449656 
   2.0884225   0.25080831  -0.78691888    3.1318506    2.3449317 
   2.0931301   0.24166457  -0.79401723    3.1389102    2.3448929 
   2.0882518    0.2432455  -0.78666373    3.1315947    2.3449309 
   2.0870773   0.24964855  -0.78486802    3.1298333    2.3449653 
   2.0836293   0.25289707  -0.77955813    3.1246626    2.3451045 
   2.0864547     0.250286  -0.78383375    3.1288996    2.3450658 
   2.0884003   0.25522143   -0.7867063    3.1318173    2.3451111 
   2.1007912   0.24064793  -0.80526674     3.150399    2.3451323 
   2.0910156     0.248876  -0.79075566    3.1357393    2.3449836 
   2.0852898     0.256689  -0.78215795    3.1271526    2.3449947 
   2.0897023   0.24638784  -0.78892324    3.1337698    2.3448466 
   2.0950602   0.23910903  -0.79687202    3.1418046    2.3449326 
   2.0877868   0.25274773  -0.78607818    3.1308973    2.3448191 
   2.0843593   0.25829974  -0.78105709    3.1257574    2.3447003 
   2.0985855   0.24003265   -0.8022673    3.1470913     2.344824 
   2.0941229   0.24883466  -0.79561778    3.1403991    2.3447813 
   2.0810189   0.26549395  -0.77606563     3.120748    2.3446824 
   2.0963119   0.24372432  -0.79897578    3.1436818     2.344706 
   2.1015176   0.24321686  -0.80701861    3.1514883    2.3444697 
   2.0916239   0.26080298  -0.79226795    3.1366515    2.3443836 
   2.1039773   0.25297833  -0.81079943     3.155177    2.3443776 
   2.0991095   0.25731244  -0.80349241    3.1478771    2.3443847 
   2.1085131   0.24345108  -0.81758004     3.161979     2.344399 
   2.0979479   0.25419166  -0.80179568    3.1461352    2.3443395 
   2.1032079   0.24621891  -0.80958338    3.1540231    2.3444397 
   2.0965426   0.24807803  -0.79958848    3.1440277    2.3444393 
    2.094139   0.25110986  -0.79602009    3.1404232    2.3444031 
   2.0948929   0.24954846  -0.79713137    3.1415537    2.3444224 
   2.0863099    0.2521744  -0.78431199    3.1286824    2.3443704 
   2.0960569    0.2403881  -0.79873769    3.1432993    2.3445616 
    2.080938    0.2550607  -0.77596193    3.1206267    2.3446647 
   2.0939003   0.24134192  -0.79538714    3.1400652    2.3446781 
   2.0851045   0.25752134  -0.78219722    3.1268749    2.3446777 
    2.089311    0.2558539  -0.78857749     3.133183    2.3446055 
   2.0938251    0.2514813  -0.79522257    3.1399524    2.3447299 
Loop time of 1.86845 on 8 procs for 5000 steps with 4000 atoms

Performance: 462416.186 tau/day, 2676.020 timesteps/s
60.8% CPU use with 8 MPI tasks x no OpenMP threads

MPI task timing breakdown:
Section |  min time  |  avg time  |  max time  |%varavg| %total
---------------------------------------------------------------
Pair    | 0.5208     | 0.55515    | 0.61109    |   3.7 | 29.71
Neigh   | 0.11691    | 0.12147    | 0.1281     |   1.2 |  6.50
Comm    | 1.0746     | 1.1373     | 1.1798     |   3.1 | 60.87
Output  | 0.0037956  | 0.0047547  | 0.010242   |   3.0 |  0.25
Modify  | 0.038043   | 0.041446   | 0.051581   |   2.0 |  2.22
Other   |            | 0.008325   |            |       |  0.45

Nlocal:    500 ave 531 max 481 min
Histogram: 2 0 1 1 2 0 1 0 0 1
Nghost:    951.125 ave 983 max 918 min
Histogram: 1 1 1 0 0 1 2 0 1 1
Neighs:    4861.5 ave 5536 max 4461 min
Histogram: 2 0 1 2 1 0 1 0 0 1

Total # of neighbors = 38892
Ave neighs/atom = 9.723
Neighbor list builds = 250
Dangerous builds not checked
Total wall time: 0:00:01
