LAMMPS (11 Aug 2017)
# 3d Lennard-Jones melt

units		lj
atom_style	atomic
boundary p p p

variable	xx equal ${size}
variable	xx equal 10
variable	yy equal ${size}
variable	yy equal 10
variable	zz equal ${size}
variable	zz equal 10


lattice		fcc ${rho}
lattice		fcc 0.643600
Lattice spacing in x,y,z = 1.83857 1.83857 1.83857
region		box block 0 ${xx} 0 ${yy} 0 ${zz}
region		box block 0 10 0 ${yy} 0 ${zz}
region		box block 0 10 0 10 0 ${zz}
region		box block 0 10 0 10 0 10
create_box	1 box
Created orthogonal box = (0 0 0) to (18.3857 18.3857 18.3857)
  2 by 2 by 2 MPI processor grid
create_atoms	1 box
Created 4000 atoms
mass		1 1.0 #39.948

velocity	all create ${T} 1 loop geom dist uniform#create temp seed
velocity	all create 1.340000 1 loop geom dist uniform
timestep    ${dt}
timestep    0.002000

pair_style	lj/cut 3.0
pair_coeff	1 1 1.0 1.0 3.0

neighbor	0.3 bin
neigh_modify	delay 0 every 20 check no

fix	1 all nve

thermo ${Dump}
thermo 50

thermo_style custom temp press pe ke etotal

#dump dump all custom ${Dump} dump.xyz id type x y z vx vy vz
run		${Run}
run		5000
Neighbor list info ...
  update every 20 steps, delay 0 steps, check no
  max neighbors/atom: 2000, page size: 100000
  master list distance cutoff = 3.3
  ghost atom cutoff = 3.3
  binsize = 1.65, bins = 12 12 12
  1 neighbor lists, perpetual/occasional/extra = 1 0 0
  (1) pair lj/cut, perpetual
      attributes: half, newton on
      pair build: half/bin/atomonly/newton
      stencil: half/bin/3d/newton
      bin: standard
Per MPI rank memory allocation (min/avg/max) = 2.645 | 2.645 | 2.645 Mbytes
Temp Press PotEng KinEng TotEng 
        1.34   -3.9329489   -4.7659863    2.0094975   -2.7564888 
   1.0638977   -1.2488658   -4.3341296    1.5954476    -2.738682 
  0.99906335  0.012976492   -4.2355451    1.4982204   -2.7373247 
   1.0174603  0.029451767   -4.2641775    1.5258088   -2.7383686 
   1.0242412  0.091265117   -4.2746027    1.5359778    -2.738625 
   1.0190426   0.18739458   -4.2669943    1.5281817   -2.7388125 
   1.0425928  0.085077801   -4.3022957    1.5634982   -2.7387975 
   1.0275983   0.16309212   -4.2803431    1.5410121    -2.739331 
   1.0272734   0.14651869   -4.2798131    1.5405248   -2.7392882 
   1.0334808  0.092378146   -4.2890298    1.5498336   -2.7391962 
   1.0386791  0.072504782   -4.2969648    1.5576291   -2.7393357 
   1.0331297  0.091476427    -4.288438    1.5493071   -2.7391309 
   1.0335993  0.069641883    -4.289316    1.5500114   -2.7393046 
    1.025055   0.11975458   -4.2764012    1.5371982    -2.739203 
   1.0359314  0.078885172   -4.2924214    1.5535086   -2.7389128 
   1.0292726    0.1027644   -4.2827193     1.543523   -2.7391963 
   1.0335637  0.083929987   -4.2890987    1.5499579   -2.7391408 
   1.0281847   0.13692539   -4.2809483    1.5418914   -2.7390569 
   1.0348908   0.12058304   -4.2911035     1.551948   -2.7391554 
   1.0328625    0.1227117   -4.2879547    1.5489064   -2.7390482 
   1.0380086   0.11488536   -4.2959039    1.5566236   -2.7392804 
   1.0331254   0.16748589   -4.2884789    1.5493007   -2.7391782 
   1.0458806  0.077167617   -4.3077639    1.5684287   -2.7393353 
   1.0389329  0.084513443   -4.2973632    1.5580097   -2.7393535 
   1.0360294  0.067305514   -4.2928844    1.5536555   -2.7392289 
   1.0355174   0.07478152   -4.2921843    1.5528877   -2.7392966 
   1.0241688   0.13007462   -4.2752688    1.5358692   -2.7393996 
   1.0158178   0.16103149   -4.2626248    1.5233458   -2.7392789 
   1.0358404  0.047132225   -4.2928796    1.5533722   -2.7395073 
   1.0277579   0.12813422    -4.280546    1.5412515   -2.7392945 
   1.0300318    0.1387273   -4.2839635    1.5446614   -2.7393021 
   1.0355317   0.13022679    -4.292341    1.5529093   -2.7394317 
   1.0404526  0.094536387   -4.2995412    1.5602887   -2.7392525 
   1.0382655   0.13492058   -4.2963333    1.5570088   -2.7393245 
   1.0356988   0.15101811   -4.2926665    1.5531598   -2.7395067 
   1.0341148   0.16451703   -4.2901215    1.5507844   -2.7393371 
   1.0444421   0.12243013   -4.3056845    1.5662714    -2.739413 
   1.0384183   0.15938634   -4.2966278    1.5572381   -2.7393897 
   1.0210361   0.24269504   -4.2704579    1.5311712   -2.7392867 
   1.0497261  0.054821884   -4.3132154    1.5741955   -2.7390199 
   1.0282432   0.15363753   -4.2811607    1.5419793   -2.7391814 
   1.0315569   0.13561858   -4.2862084    1.5469484   -2.7392599 
   1.0307621   0.11988832   -4.2849248    1.5457566   -2.7391682 
   1.0264549   0.14913504   -4.2787371    1.5392975   -2.7394397 
   1.0273311   0.14444517   -4.2797002    1.5406114   -2.7390888 
   1.0341013   0.12070565   -4.2898933    1.5507642   -2.7391291 
   1.0404242  0.098925907    -4.299185    1.5602461    -2.738939 
   1.0384081  0.095351128   -4.2962891    1.5572228   -2.7390663 
   1.0348466   0.09167824    -4.290932    1.5518818   -2.7390502 
   1.0377732  0.064925607   -4.2956127    1.5562706   -2.7393421 
   1.0363387  0.078533692   -4.2934133    1.5541195   -2.7392938 
   1.0326583  0.093958529   -4.2877741    1.5486002   -2.7391739 
   1.0408189   0.05527505   -4.2999989     1.560838   -2.7391609 
   1.0331418   0.11943002   -4.2884385    1.5493252   -2.7391133 
   1.0309772   0.17161147   -4.2852547    1.5460792   -2.7391755 
   1.0338192   0.15334327   -4.2891963    1.5503411   -2.7388552 
   1.0283384   0.16513891   -4.2812726     1.542122   -2.7391507 
   1.0392761  0.085596858   -4.2977895    1.5585244   -2.7392651 
   1.0190588   0.14875076   -4.2676024    1.5282061   -2.7393963 
   1.0253342   0.10619634   -4.2770607    1.5376168   -2.7394439 
   1.0256157  0.096862009   -4.2774516    1.5380389   -2.7394127 
   1.0193549   0.15978729   -4.2678434      1.52865   -2.7391933 
   1.0228267   0.16403285   -4.2729567    1.5338565   -2.7391002 
   1.0364448   0.12105044   -4.2933998    1.5542786   -2.7391212 
   1.0339274   0.13714209   -4.2897529    1.5505034   -2.7392495 
   1.0212549    0.1770121   -4.2707126    1.5314993   -2.7392132 
   1.0268744   0.14872039   -4.2792096    1.5399265   -2.7392831 
   1.0221054   0.17370755   -4.2718849    1.5327748   -2.7391101 
   1.0278387   0.14400776   -4.2805231    1.5413725   -2.7391505 
   1.0283962   0.13972323   -4.2813097    1.5422086   -2.7391011 
   1.0322005   0.13339188   -4.2869786    1.5479137   -2.7390649 
   1.0368432   0.11224207   -4.2939817     1.554876   -2.7391056 
   1.0253333   0.14027667   -4.2770077    1.5376154   -2.7393922 
   1.0325465   0.11139339   -4.2875554    1.5484325   -2.7391229 
   1.0337383  0.097714454   -4.2894693    1.5502197   -2.7392496 
   1.0281312   0.17178397   -4.2810912    1.5418112     -2.73928 
   1.0331934   0.16169954   -4.2886685    1.5494027   -2.7392658 
   1.0369607   0.15841633   -4.2941567    1.5550522   -2.7391045 
   1.0399231   0.14296899   -4.2986862    1.5594946   -2.7391916 
   1.0506885  0.064120273   -4.3150208    1.5756388   -2.7393821 
   1.0371855   0.13664064   -4.2946689    1.5553894   -2.7392796 
   1.0304098   0.19550682   -4.2844309    1.5452283   -2.7392026 
   1.0273385    0.2303816   -4.2797563    1.5406226   -2.7391337 
   1.0399987   0.18310381   -4.2988505    1.5596081   -2.7392424 
   1.0416913    0.1355589   -4.3016128    1.5621463   -2.7394665 
    1.042778   0.12839642   -4.3031131     1.563776   -2.7393371 
   1.0426854   0.12485143   -4.3030594     1.563637   -2.7394224 
   1.0417343   0.12488539   -4.3014231    1.5622108   -2.7392123 
   1.0398606   0.13360085   -4.2986946     1.559401   -2.7392936 
    1.028391   0.19164371   -4.2813957    1.5422008   -2.7391949 
   1.0310833   0.16444423   -4.2854223    1.5462383    -2.739184 
   1.0400065   0.10213715   -4.2988692    1.5596197   -2.7392495 
   1.0373805    0.1148648   -4.2949295    1.5556817   -2.7392478 
   1.0285156   0.19486437   -4.2813586    1.5423877   -2.7389709 
   1.0271715    0.2325506   -4.2795561    1.5403721   -2.7391841 
   1.0273712   0.19481861   -4.2798646    1.5406716   -2.7391931 
   1.0474964  0.073268379    -4.310061    1.5708518   -2.7392091 
    1.027632   0.18281097    -4.280202    1.5410626   -2.7391394 
   1.0554622  0.053933717   -4.3219616    1.5827975   -2.7391641 
   1.0243909   0.23178542   -4.2754687    1.5362022   -2.7392666 
   1.0351296   0.17688753   -4.2915003    1.5523062   -2.7391941 
Loop time of 4.45329 on 8 procs for 5000 steps with 4000 atoms

Performance: 194014.041 tau/day, 1122.766 timesteps/s
81.2% CPU use with 8 MPI tasks x no OpenMP threads

MPI task timing breakdown:
Section |  min time  |  avg time  |  max time  |%varavg| %total
---------------------------------------------------------------
Pair    | 2.5329     | 2.6465     | 2.753      |   4.8 | 59.43
Neigh   | 0.26812    | 0.27378    | 0.27953    |   0.8 |  6.15
Comm    | 1.3633     | 1.4712     | 1.5843     |   6.5 | 33.04
Output  | 0.0025194  | 0.0059143  | 0.013521   |   4.8 |  0.13
Modify  | 0.039644   | 0.041397   | 0.042913   |   0.6 |  0.93
Other   |            | 0.01455    |            |       |  0.33

Nlocal:    500 ave 514 max 490 min
Histogram: 2 1 0 1 1 0 1 1 0 1
Nghost:    2036.75 ave 2063 max 2016 min
Histogram: 1 1 2 1 0 0 0 2 0 1
Neighs:    24083.6 ave 24950 max 22764 min
Histogram: 1 0 1 0 0 2 0 1 1 2

Total # of neighbors = 192669
Ave neighs/atom = 48.1673
Neighbor list builds = 250
Dangerous builds not checked
Total wall time: 0:00:04
