LAMMPS (11 Aug 2017)
# 3d Lennard-Jones melt

units		lj
atom_style	atomic
boundary p p p

variable	xx equal ${size}
variable	xx equal 10
variable	yy equal ${size}
variable	yy equal 10
variable	zz equal ${size}
variable	zz equal 10


lattice		fcc ${rho}
lattice		fcc 0.029800
Lattice spacing in x,y,z = 5.12013 5.12013 5.12013
region		box block 0 ${xx} 0 ${yy} 0 ${zz}
region		box block 0 10 0 ${yy} 0 ${zz}
region		box block 0 10 0 10 0 ${zz}
region		box block 0 10 0 10 0 10
create_box	1 box
Created orthogonal box = (0 0 0) to (51.2013 51.2013 51.2013)
  2 by 2 by 2 MPI processor grid
create_atoms	1 box
Created 4000 atoms
mass		1 1.0 #39.948

velocity	all create ${T} 1 loop geom dist uniform#create temp seed
velocity	all create 3.320000 1 loop geom dist uniform
timestep    ${dt}
timestep    0.002000

pair_style	lj/cut 3.0
pair_coeff	1 1 1.0 1.0 3.0

neighbor	0.3 bin
neigh_modify	delay 0 every 20 check no

fix	1 all nve

thermo ${Dump}
thermo 50

thermo_style custom temp press pe ke etotal

#dump dump all custom ${Dump} dump.xyz id type x y z vx vy vz
run		${Run}
run		5000
Neighbor list info ...
  update every 20 steps, delay 0 steps, check no
  max neighbors/atom: 2000, page size: 100000
  master list distance cutoff = 3.3
  ghost atom cutoff = 3.3
  binsize = 1.65, bins = 32 32 32
  1 neighbor lists, perpetual/occasional/extra = 1 0 0
  (1) pair lj/cut, perpetual
      attributes: half, newton on
      pair build: half/bin/atomonly/newton
      stencil: half/bin/3d/newton
      bin: standard
Per MPI rank memory allocation (min/avg/max) = 2.612 | 2.612 | 2.612 Mbytes
Temp Press PotEng KinEng TotEng 
        3.32  0.098911266            0     4.978755     4.978755 
   3.3200142   0.09890007 -0.00019523292    4.9787762     4.978581 
    3.321673  0.098627042 -0.0056238884    4.9812639      4.97564 
   3.3303011  0.098036244 -0.020638745    4.9942027     4.973564 
    3.339281   0.10192734 -0.035059341    5.0076692    4.9726099 
   3.3515307   0.10756289 -0.054109381    5.0260392    4.9719299 
   3.3891123   0.10269534  -0.11101564    5.0823976     4.971382 
   3.3973404   0.10311612  -0.12378285    5.0947366    4.9709537 
   3.4007095   0.10340695  -0.12911943    5.0997891    4.9706696 
   3.4037037   0.10371576  -0.13372605    5.1042791    4.9705531 
   3.4056206   0.10416701  -0.13674623    5.1071538    4.9704076 
   3.4114555   0.10212021  -0.14566286     5.115904    4.9702412 
   3.4021055   0.10414067  -0.13175108    5.1018825    4.9701314 
   3.4056943   0.10340227  -0.13722713    5.1072643    4.9700371 
    3.406837   0.10291543  -0.13897912     5.108978    4.9699989 
   3.4103558   0.10167835  -0.14427759    5.1142549    4.9699773 
   3.4131655   0.10146003  -0.14845142    5.1184683    4.9700169 
   3.4075314    0.1044842   -0.1400328    5.1100193    4.9699865 
   3.4162953   0.10310406  -0.15318708    5.1231618    4.9699748 
   3.4174929   0.10334353  -0.15501071    5.1249577     4.969947 
   3.4095282   0.10430771  -0.14310517    5.1130137    4.9699085 
   3.4085015   0.10320652  -0.14159217    5.1114741    4.9698819 
   3.4125111   0.10141253  -0.14758769    5.1174869    4.9698992 
   3.4143605   0.10143763  -0.15050475    5.1202603    4.9697556 
   3.4209667   0.10102089  -0.16048711    5.1301672    4.9696801 
   3.4226979   0.10214137  -0.16312558    5.1327633    4.9696377 
   3.4230867   0.10201097  -0.16376418    5.1333464    4.9695822 
   3.4152648   0.10392383  -0.15202695    5.1216164    4.9695895 
   3.4166741   0.10377711  -0.15413519    5.1237299    4.9695948 
   3.4166051   0.10335442  -0.15402597    5.1236264    4.9696004 
   3.4130263   0.10398678  -0.14867168    5.1182596    4.9695879 
   3.4105455   0.10466673  -0.14489509    5.1145393    4.9696442 
   3.4212112     0.102673  -0.16091554    5.1305339    4.9696183 
   3.4128653   0.10503851  -0.14843902    5.1180182    4.9695792 
   3.4209375   0.10272722  -0.16047003    5.1301234    4.9696533 
   3.4242613   0.10177589  -0.16538869    5.1351079    4.9697192 
   3.4188117   0.10248471  -0.15718018    5.1269355    4.9697554 
   3.4233444   0.10173594  -0.16404438    5.1337329    4.9696885 
   3.4207173   0.10300394  -0.15994077    5.1297931    4.9698523 
   3.4184182   0.10349435  -0.15646388    5.1263455    4.9698816 
   3.4149312   0.10398793  -0.15129552    5.1211162    4.9698207 
   3.4202331   0.10182696  -0.15932199    5.1290671    4.9697451 
   3.4176267   0.10294744  -0.15547722    5.1251585    4.9696813 
   3.4201997   0.10267213  -0.15936559    5.1290169    4.9696513 
   3.4198713   0.10254415  -0.15891621    5.1285245    4.9696083 
   3.4197634   0.10222932  -0.15874697    5.1283626    4.9696157 
   3.4267343   0.10078681  -0.16917676    5.1388164    4.9696396 
   3.4156918   0.10391231  -0.15264999    5.1222569    4.9696069 
   3.4192392    0.1035024  -0.15796665    5.1275765    4.9696099 
   3.4172236   0.10407852  -0.15494281    5.1245539    4.9696111 
   3.4216174   0.10222685  -0.16164188     5.131143    4.9695011 
   3.4214639   0.10172938   -0.1614395    5.1309127    4.9694732 
   3.4211392    0.1016058  -0.16095069    5.1304258    4.9694751 
   3.4227785   0.10159096  -0.16338838    5.1328842    4.9694958 
   3.4156681   0.10394132  -0.15271334    5.1222212    4.9695079 
   3.4215916   0.10207122  -0.16154589    5.1311044    4.9695585 
   3.4216512   0.10271505  -0.16172591    5.1311937    4.9694678 
   3.4270703   0.10128726  -0.16990509    5.1393204    4.9694153 
   3.4282331   0.10109288  -0.17159563     5.141064    4.9694684 
   3.4267728   0.10192692  -0.16932831    5.1388742    4.9695459 
   3.4277489   0.10197457  -0.17077702    5.1403379    4.9695609 
   3.4238861   0.10285708   -0.1649139    5.1345451    4.9696312 
   3.4285616   0.10214711  -0.17203862    5.1415567    4.9695181 
   3.4215819   0.10349194   -0.1615223    5.1310897    4.9695674 
   3.4206876   0.10305986  -0.16027017    5.1297487    4.9694785 
   3.4264109   0.10185418   -0.1688115    5.1383314    4.9695199 
   3.4267626   0.10132819   -0.1694515    5.1388588    4.9694073 
   3.4218894   0.10298382  -0.16220338    5.1315509    4.9693475 
   3.4240729   0.10309913  -0.16539905    5.1348254    4.9694263 
   3.4283759   0.10296072  -0.17192635    5.1412782    4.9693518 
   3.4324963   0.10220798  -0.17813363    5.1474573    4.9693237 
    3.432842    0.1020922  -0.17866405    5.1479757    4.9693116 
   3.4349453   0.10209856  -0.18178722    5.1511298    4.9693426 
   3.4189495   0.10557864  -0.15780154    5.1271421    4.9693406 
   3.4310734   0.10206662  -0.17598351    5.1453235    4.9693399 
   3.4233438   0.10345687  -0.16441219     5.133732    4.9693198 
   3.4264975   0.10238183  -0.16904962    5.1384613    4.9694117 
   3.4220963   0.10376297  -0.16236949    5.1318612    4.9694917 
   3.4281447   0.10150641   -0.1714477    5.1409315    4.9694838 
   3.4239274   0.10188064  -0.16513146    5.1346071    4.9694757 
   3.4257526   0.10154469   -0.1678214    5.1373442    4.9695228 
   3.4246418   0.10196508  -0.16616825    5.1356785    4.9695102 
   3.4264341   0.10202191  -0.16881216    5.1383662    4.9695541 
   3.4284535   0.10244332  -0.17189027    5.1413945    4.9695042 
   3.4221157   0.10383558  -0.16234893    5.1318902    4.9695413 
   3.4205371   0.10414214  -0.16001624    5.1295229    4.9695067 
   3.4242618   0.10304473  -0.16552222    5.1351086    4.9695864 
   3.4268875   0.10174249  -0.16942482    5.1390461    4.9696213 
   3.4193549   0.10286853  -0.15810962      5.12775    4.9696404 
   3.4195597   0.10258321   -0.1584491    5.1280571     4.969608 
    3.413443   0.10377746  -0.14926383    5.1188844    4.9696206 
   3.4168243   0.10313886  -0.15431131    5.1239551    4.9696438 
    3.420034   0.10211027  -0.15910747    5.1287685    4.9696611 
    3.421146    0.1024348  -0.16076572    5.1304361    4.9696704 
   3.4150424   0.10380313  -0.15169854    5.1212829    4.9695844 
   3.4069345   0.10493981  -0.13949089    5.1091242    4.9696333 
   3.4220321    0.1004241  -0.16208778    5.1317648     4.969677 
   3.4192167   0.10173867  -0.15788863    5.1275429    4.9696542 
   3.4207656   0.10194492  -0.16025431    5.1298656    4.9696113 
   3.4158878   0.10332967  -0.15291224    5.1225508    4.9696385 
   3.4263203   0.10003135  -0.16864958    5.1381956     4.969546 
Loop time of 1.03355 on 8 procs for 5000 steps with 4000 atoms

Performance: 835951.249 tau/day, 4837.681 timesteps/s
48.3% CPU use with 8 MPI tasks x no OpenMP threads

MPI task timing breakdown:
Section |  min time  |  avg time  |  max time  |%varavg| %total
---------------------------------------------------------------
Pair    | 0.13809    | 0.14827    | 0.16187    |   1.9 | 14.35
Neigh   | 0.049252   | 0.052356   | 0.055055   |   0.8 |  5.07
Comm    | 0.74808    | 0.77307    | 0.79214    |   1.5 | 74.80
Output  | 0.0064869  | 0.010752   | 0.037549   |   9.8 |  1.04
Modify  | 0.039155   | 0.043133   | 0.047494   |   1.2 |  4.17
Other   |            | 0.005967   |            |       |  0.58

Nlocal:    500 ave 521 max 472 min
Histogram: 2 0 0 0 1 0 1 2 0 2
Nghost:    493.375 ave 524 max 469 min
Histogram: 2 0 1 0 1 1 1 1 0 1
Neighs:    1116.25 ave 1233 max 981 min
Histogram: 1 1 0 0 0 2 2 1 0 1

Total # of neighbors = 8930
Ave neighs/atom = 2.2325
Neighbor list builds = 250
Dangerous builds not checked
Total wall time: 0:00:01
