LAMMPS (11 Aug 2017)
# 3d Lennard-Jones melt

units		lj
atom_style	atomic
boundary p p p

variable	xx equal ${size}
variable	xx equal 10
variable	yy equal ${size}
variable	yy equal 10
variable	zz equal ${size}
variable	zz equal 10


lattice		fcc ${rho}
lattice		fcc 0.703000
Lattice spacing in x,y,z = 1.78526 1.78526 1.78526
region		box block 0 ${xx} 0 ${yy} 0 ${zz}
region		box block 0 10 0 ${yy} 0 ${zz}
region		box block 0 10 0 10 0 ${zz}
region		box block 0 10 0 10 0 10
create_box	1 box
Created orthogonal box = (0 0 0) to (17.8526 17.8526 17.8526)
  2 by 2 by 2 MPI processor grid
create_atoms	1 box
Created 4000 atoms
mass		1 1.0 #39.948

velocity	all create ${T} 1 loop geom dist uniform#create temp seed
velocity	all create 2.060000 1 loop geom dist uniform
timestep    ${dt}
timestep    0.002000

pair_style	lj/cut 3.0
pair_coeff	1 1 1.0 1.0 3.0

neighbor	0.3 bin
neigh_modify	delay 0 every 20 check no

fix	1 all nve

thermo ${Dump}
thermo 50

thermo_style custom temp press pe ke etotal

#dump dump all custom ${Dump} dump.xyz id type x y z vx vy vz
run		${Run}
run		5000
Neighbor list info ...
  update every 20 steps, delay 0 steps, check no
  max neighbors/atom: 2000, page size: 100000
  master list distance cutoff = 3.3
  ghost atom cutoff = 3.3
  binsize = 1.65, bins = 11 11 11
  1 neighbor lists, perpetual/occasional/extra = 1 0 0
  (1) pair lj/cut, perpetual
      attributes: half, newton on
      pair build: half/bin/atomonly/newton
      stencil: half/bin/3d/newton
      bin: standard
Per MPI rank memory allocation (min/avg/max) = 2.643 | 2.643 | 2.643 Mbytes
Temp Press PotEng KinEng TotEng 
        2.06   -4.1270763   -5.4465441    3.0892275   -2.3573166 
   1.2755033    1.5768506   -4.2669891    1.9127766   -2.3542125 
    1.384557    1.5852457   -4.4325285    2.0763163   -2.3562121 
   1.3890262    1.6224468   -4.4406567    2.0830184   -2.3576384 
   1.3849604    1.6635831   -4.4351408    2.0769212   -2.3582196 
   1.3901058    1.6164735   -4.4432158    2.0846374   -2.3585784 
   1.4090943    1.4934064   -4.4713632     2.113113   -2.3582502 
   1.3876349    1.6051897   -4.4391325     2.080932   -2.3582004 
   1.3835689    1.6163675    -4.433037    2.0748345   -2.3582024 
   1.4120781    1.4579901   -4.4757011    2.1175876   -2.3581135 
   1.3825317    1.6229956   -4.4314228    2.0732792   -2.3581437 
   1.3856101    1.6276325   -4.4360173    2.0778956   -2.3581217 
   1.3975102    1.5460308    -4.454173    2.0957413   -2.3584317 
   1.3727592    1.6577949   -4.4168023     2.058624   -2.3581784 
   1.3792196    1.6393448   -4.4264732    2.0683122   -2.3581611 
   1.3889811    1.6519538   -4.4411813    2.0829508   -2.3582305 
   1.3866828    1.6508147    -4.437706    2.0795042   -2.3582018 
   1.3994618    1.5464133   -4.4568719    2.0986678   -2.3582041 
   1.4005654    1.5222301   -4.4584745    2.1003228   -2.3581517 
   1.4028624    1.5447188    -4.461811    2.1037675   -2.3580435 
   1.3822934    1.6739716   -4.4310033    2.0729217   -2.3580815 
   1.3821485    1.6690123   -4.4307281    2.0727045   -2.3580236 
   1.3946507     1.587358   -4.4495416     2.091453   -2.3580886 
   1.4021039    1.5601435   -4.4609568      2.10263   -2.3583269 
    1.393903     1.599725    -4.448577    2.0903317   -2.3582452 
   1.3933941    1.5949375   -4.4479937    2.0895686   -2.3584252 
   1.3971058    1.5780388   -4.4532491    2.0951349   -2.3581142 
   1.3926453    1.5781276   -4.4465958    2.0884457   -2.3581501 
   1.4177704    1.4263487    -4.484146    2.1261239   -2.3580221 
   1.3970816    1.5309175   -4.4530819    2.0950985   -2.3579834 
   1.3881777    1.6057535   -4.4398068    2.0817459   -2.3580609 
   1.3851415    1.6335853   -4.4353243    2.0771928   -2.3581315 
   1.3804311    1.6375272   -4.4283332     2.070129   -2.3582042 
   1.3896503    1.6253202   -4.4422955    2.0839543   -2.3583412 
   1.3820753    1.6830001   -4.4309066    2.0725947   -2.3583119 
   1.4046389    1.5450216   -4.4650125    2.1064316   -2.3585808 
   1.3878433    1.6219272   -4.4398656    2.0812446    -2.358621 
   1.3927077    1.6005665   -4.4469794    2.0885392   -2.3584402 
   1.3933007    1.5825718   -4.4477008    2.0894286   -2.3582722 
   1.4051027    1.4831845   -4.4655129    2.1071271   -2.3583858 
   1.4035783    1.5112889   -4.4631068    2.1048411   -2.3582657 
   1.3923334    1.6165547   -4.4466083     2.087978   -2.3586303 
   1.3897339    1.6446499   -4.4423902    2.0840798   -2.3583104 
   1.3925709    1.6425297   -4.4467529    2.0883342   -2.3584187 
   1.4038665    1.5731113   -4.4636841    2.1052733   -2.3584107 
   1.4066915    1.5556796   -4.4676388    2.1095098    -2.358129 
    1.397976    1.5680521   -4.4546595    2.0964397   -2.3582198 
   1.3830838    1.6253803   -4.4321625    2.0741071   -2.3580554 
   1.3828677     1.592357   -4.4320596     2.073783   -2.3582766 
   1.3939381    1.5267893   -4.4486249    2.0903845   -2.3582404 
     1.39318    1.5477196   -4.4477179    2.0892475   -2.3584704 
   1.3879149    1.5657592    -4.439855    2.0813519   -2.3585031 
   1.3901675    1.6174919   -4.4431087    2.0847299   -2.3583788 
   1.4022812    1.5418153   -4.4610364     2.102896   -2.3581404 
   1.3812438    1.6259506   -4.4296064    2.0713478   -2.3582586 
   1.3873848    1.6038827   -4.4386508     2.080557   -2.3580938 
   1.3914216    1.5718837   -4.4450317    2.0866106   -2.3584212 
   1.3832413    1.5853919   -4.4329914    2.0743432   -2.3586481 
   1.3843511    1.5806351   -4.4345294    2.0760076   -2.3585218 
   1.3900011    1.5565226   -4.4428961    2.0844804   -2.3584157 
   1.3863395    1.6071436   -4.4374279    2.0789894   -2.3584386 
   1.4098513    1.4841881   -4.4725097    2.1142482   -2.3582615 
   1.3877559    1.6115052   -4.4394581    2.0811135   -2.3583446 
   1.3802742    1.6239872   -4.4282371    2.0698937   -2.3583434 
   1.3887023    1.6172477   -4.4409416    2.0825326    -2.358409 
   1.3944413    1.5685254   -4.4495647     2.091139   -2.3584257 
   1.3705087    1.6974979   -4.4135802    2.0552491   -2.3583311 
   1.3891955    1.5940336   -4.4414709    2.0832723   -2.3581985 
   1.3974634    1.5452082   -4.4538082     2.095671   -2.3581372 
   1.3829059    1.6255607   -4.4317195    2.0738402   -2.3578793 
   1.3857829     1.614232   -4.4362974    2.0781547   -2.3581427 
   1.3814691    1.6432673   -4.4300475    2.0716856   -2.3583619 
   1.3732211    1.6834569   -4.4177423    2.0593167   -2.3584257 
   1.4015373    1.5532065   -4.4600876    2.1017803   -2.3583073 
   1.4129814    1.5321979   -4.4770126    2.1189422   -2.3580704 
   1.4038458    1.6074954   -4.4633169    2.1052423   -2.3580746 
   1.3848194    1.6525335    -4.434781    2.0767099   -2.3580711 
   1.4037502    1.4886736   -4.4636543    2.1050988   -2.3585555 
   1.4129828    1.4441292   -4.4772155    2.1189443   -2.3582712 
   1.3889861    1.5936515   -4.4414093    2.0829583    -2.358451 
   1.3925161    1.5906527   -4.4466548    2.0882519   -2.3584029 
   1.3976215     1.561762   -4.4540674    2.0959082   -2.3581593 
    1.396668    1.5403332   -4.4526843    2.0944783   -2.3582061 
   1.3977756     1.529066   -4.4542888    2.0961393   -2.3581495 
   1.3984349    1.5397273    -4.455249    2.0971279    -2.358121 
   1.3964275    1.5570529   -4.4522075    2.0941177   -2.3580899 
   1.3872439    1.6381083   -4.4385895    2.0803456    -2.358244 
   1.3941683    1.6276564   -4.4490274    2.0907296   -2.3582979 
    1.389616    1.6244208   -4.4423082     2.083903   -2.3584052 
   1.3797993    1.6323861   -4.4273879    2.0691815   -2.3582064 
   1.3824215    1.6007283   -4.4314597    2.0731138   -2.3583459 
   1.3952203    1.5618326   -4.4503541    2.0923073   -2.3580468 
   1.3921903    1.6094313   -4.4463139    2.0877633   -2.3585506 
   1.3885362    1.6383315   -4.4406435    2.0822837   -2.3583598 
   1.3995036    1.6034988    -4.456931    2.0987306   -2.3582004 
   1.3865173    1.6249934   -4.4374034     2.079256   -2.3581474 
   1.3941659    1.5856782   -4.4489426    2.0907261   -2.3582165 
   1.3887124    1.6080844   -4.4406789    2.0825478   -2.3581311 
   1.3971085      1.53059   -4.4534021    2.0951389   -2.3582632 
   1.3828169    1.5959387   -4.4318599    2.0737068   -2.3581531 
   1.4028455    1.4993322   -4.4618569    2.1037421   -2.3581148 
Loop time of 5.5491 on 8 procs for 5000 steps with 4000 atoms

Performance: 155700.805 tau/day, 901.046 timesteps/s
74.0% CPU use with 8 MPI tasks x no OpenMP threads

MPI task timing breakdown:
Section |  min time  |  avg time  |  max time  |%varavg| %total
---------------------------------------------------------------
Pair    | 2.8337     | 2.9451     | 3.0445     |   3.8 | 53.07
Neigh   | 0.31163    | 0.3232     | 0.35491    |   2.5 |  5.82
Comm    | 2.0816     | 2.1894     | 2.2872     |   4.1 | 39.46
Output  | 0.0029101  | 0.032168   | 0.059344   |  15.2 |  0.58
Modify  | 0.041134   | 0.043088   | 0.049682   |   1.3 |  0.78
Other   |            | 0.01611    |            |       |  0.29

Nlocal:    500 ave 514 max 487 min
Histogram: 1 1 1 1 1 0 1 0 0 2
Nghost:    2130.75 ave 2142 max 2110 min
Histogram: 1 0 0 0 1 1 0 2 1 2
Neighs:    26303.8 ave 27217 max 25418 min
Histogram: 2 1 0 0 1 0 1 1 0 2

Total # of neighbors = 210430
Ave neighs/atom = 52.6075
Neighbor list builds = 250
Dangerous builds not checked
Total wall time: 0:00:05
