LAMMPS (11 Aug 2017)
# 3d Lennard-Jones melt

units		lj
atom_style	atomic
boundary p p p

variable	xx equal ${size}
variable	xx equal 10
variable	yy equal ${size}
variable	yy equal 10
variable	zz equal ${size}
variable	zz equal 10


lattice		fcc ${rho}
lattice		fcc 0.703000
Lattice spacing in x,y,z = 1.78526 1.78526 1.78526
region		box block 0 ${xx} 0 ${yy} 0 ${zz}
region		box block 0 10 0 ${yy} 0 ${zz}
region		box block 0 10 0 10 0 ${zz}
region		box block 0 10 0 10 0 10
create_box	1 box
Created orthogonal box = (0 0 0) to (17.8526 17.8526 17.8526)
  2 by 2 by 2 MPI processor grid
create_atoms	1 box
Created 4000 atoms
mass		1 1.0 #39.948

velocity	all create ${T} 1 loop geom dist uniform#create temp seed
velocity	all create 2.720000 1 loop geom dist uniform
timestep    ${dt}
timestep    0.002000

pair_style	lj/cut 3.0
pair_coeff	1 1 1.0 1.0 3.0

neighbor	0.3 bin
neigh_modify	delay 0 every 20 check no

fix	1 all nve

thermo ${Dump}
thermo 50

thermo_style custom temp press pe ke etotal

#dump dump all custom ${Dump} dump.xyz id type x y z vx vy vz
run		${Run}
run		5000
Neighbor list info ...
  update every 20 steps, delay 0 steps, check no
  max neighbors/atom: 2000, page size: 100000
  master list distance cutoff = 3.3
  ghost atom cutoff = 3.3
  binsize = 1.65, bins = 11 11 11
  1 neighbor lists, perpetual/occasional/extra = 1 0 0
  (1) pair lj/cut, perpetual
      attributes: half, newton on
      pair build: half/bin/atomonly/newton
      stencil: half/bin/3d/newton
      bin: standard
Per MPI rank memory allocation (min/avg/max) = 2.643 | 2.643 | 2.643 Mbytes
Temp Press PotEng KinEng TotEng 
        2.72   -3.6632123   -5.4465441      4.07898   -1.3675641 
   1.7263804     3.301425   -3.9538755    2.5889232   -1.3649524 
   1.8640827    3.0659106   -4.1627701     2.795425   -1.3673451 
   1.8571848    3.1210138    -4.153753    2.7850808   -1.3686722 
   1.8642636    3.0811712   -4.1645815    2.7956963   -1.3688852 
   1.8622843    3.0456284   -4.1616372     2.792728   -1.3689092 
   1.8690449    3.0121738   -4.1716796    2.8028664   -1.3688132 
    1.861652    3.0276366   -4.1606111    2.7917798   -1.3688313 
   1.8546764    3.0732951    -4.150183    2.7813191   -1.3688639 
   1.8643422    3.0374601   -4.1647302    2.7958142    -1.368916 
    1.881594    2.9294407   -4.1905062    2.8216854   -1.3688208 
   1.8728086    3.0054476   -4.1772435    2.8085107   -1.3687329 
   1.8618035    3.0435806   -4.1608175     2.792007   -1.3688105 
   1.8639691    2.9969103   -4.1639179    2.7952546   -1.3686633 
   1.8579437    3.0278027   -4.1552615    2.7862188   -1.3690427 
   1.8602708    3.0325119   -4.1585583    2.7897087   -1.3688497 
   1.8777476    2.9309604   -4.1848777    2.8159172   -1.3689604 
   1.8664684    3.0019406   -4.1680386    2.7990026    -1.369036 
   1.8363716    3.1724173   -4.1226807    2.7538687    -1.368812 
   1.8729645    2.9663036   -4.1778629    2.8087445   -1.3691185 
   1.8725241    2.9686915   -4.1769874    2.8080839   -1.3689034 
   1.8691258    3.0217372   -4.1719766    2.8029878   -1.3689888 
   1.8602249    3.0531298   -4.1587098    2.7896397   -1.3690701 
    1.876175     2.960296   -4.1826338     2.813559   -1.3690749 
    1.878155    2.9637608   -4.1854624    2.8165283   -1.3689342 
   1.8775857    2.9840998   -4.1848788    2.8156744   -1.3692044 
   1.8629902    3.0692543   -4.1625886    2.7937867   -1.3688019 
   1.8608778    3.0679058   -4.1593811    2.7906189   -1.3687622 
   1.8526957    3.1073268   -4.1471132    2.7783488   -1.3687643 
   1.8718466    2.9610581   -4.1760928    2.8070679   -1.3690249 
   1.8393857    3.1522653   -4.1274079    2.7583888   -1.3690192 
   1.8646997    3.0130566   -4.1652181    2.7963502   -1.3688679 
   1.8556896     3.071338   -4.1519762    2.7828385   -1.3691376 
   1.8878316    2.8889498   -4.1998466    2.8310395   -1.3688071 
   1.8601422    3.0754541   -4.1581635    2.7895157   -1.3686477 
   1.8715185     3.021005   -4.1752641     2.806576   -1.3686881 
   1.8433953    3.1360619   -4.1330873    2.7644017   -1.3686856 
   1.8664584    2.9885054   -4.1674874    2.7989877   -1.3684997 
   1.8656876    3.0062544   -4.1663764    2.7978318   -1.3685446 
   1.8659593    3.0215522   -4.1669135    2.7982392   -1.3686743 
   1.8767539    2.9670965   -4.1829193     2.814427   -1.3684923 
   1.8980294    2.8498955   -4.2149187    2.8463324   -1.3685863 
   1.8525795    3.0691515   -4.1469834    2.7781746   -1.3688088 
   1.8492941     3.087471    -4.142204    2.7732476   -1.3689564 
   1.8587637    3.0446007   -4.1563676    2.7874485   -1.3689192 
   1.8774356     2.928006   -4.1841029    2.8154494   -1.3686535 
   1.8630394    3.0032626   -4.1628106    2.7938605   -1.3689501 
   1.8565201    3.0306755    -4.152799    2.7840839    -1.368715 
   1.8527576    3.0655524   -4.1472507    2.7784416   -1.3688091 
   1.8640068    3.0038126   -4.1638553    2.7953113    -1.368544 
   1.8716556    2.9915425   -4.1755371    2.8067816   -1.3687555 
   1.8858075    2.9208797   -4.1968822    2.8280041   -1.3688782 
    1.871752    2.9716336   -4.1758201    2.8069261    -1.368894 
   1.8640863     2.998907   -4.1642728    2.7954304   -1.3688424 
   1.8688699    2.9432054   -4.1714426     2.802604   -1.3688386 
   1.8516651    3.0555179   -4.1456549    2.7768033   -1.3688516 
   1.8528236    3.0372722   -4.1474126    2.7785405   -1.3688721 
   1.8538737    3.0577187   -4.1490445    2.7801153   -1.3689291 
   1.8774831    2.9802702   -4.1844623    2.8155206   -1.3689416 
   1.8726421    3.0035011   -4.1771954    2.8082609   -1.3689345 
   1.8834304    2.9170218   -4.1932364    2.8244393   -1.3687972 
   1.8498972    3.0873632   -4.1431083    2.7741522   -1.3689561 
   1.8654567    2.9843255   -4.1662699    2.7974855   -1.3687844 
   1.8666126    2.9912732   -4.1677098    2.7992189   -1.3684909 
   1.8380915    3.1597813   -4.1249175     2.756448   -1.3684696 
   1.8810149    2.9195926   -4.1894347     2.820817   -1.3686177 
   1.8852599    2.9002709   -4.1959594    2.8271829   -1.3687765 
   1.8657315    3.0425889   -4.1666792    2.7978976   -1.3687815 
   1.8667526    3.0416589   -4.1683929    2.7994289    -1.368964 
   1.8816084    2.9595522   -4.1908759     2.821707   -1.3691689 
   1.8415908    3.1730646   -4.1307487    2.7616956   -1.3690531 
   1.8982544    2.8594837   -4.2156675    2.8466698   -1.3689978 
   1.8803973    2.9280813   -4.1886416    2.8198909   -1.3687507 
    1.847204    3.1024222   -4.1389596    2.7701133   -1.3688463 
   1.8578496    3.0061262   -4.1549589    2.7860776   -1.3688813 
   1.8566898    3.0429716   -4.1530346    2.7843385   -1.3686961 
   1.8666732     2.977864   -4.1678022    2.7993098   -1.3684923 
   1.8462766    3.1131692   -4.1373193    2.7687225   -1.3685968 
   1.8362241    3.1495691   -4.1223689    2.7536475   -1.3687214 
   1.8613113    3.0468042   -4.1599716    2.7912689   -1.3687027 
   1.8614701    3.0022867   -4.1601044    2.7915071   -1.3685973 
    1.861184     3.003242   -4.1598518    2.7910781   -1.3687737 
    1.863028    3.0473292   -4.1623867    2.7938434   -1.3685433 
   1.8560147    3.0197545   -4.1521824    2.7833261   -1.3688563 
   1.8643734    2.9382644   -4.1648057     2.795861   -1.3689447 
   1.8604083    2.9821813   -4.1587043    2.7899148   -1.3687895 
   1.8613187    3.0073753   -4.1599985    2.7912801   -1.3687184 
   1.8586072     3.018091   -4.1559153    2.7872138   -1.3687016 
   1.8863976    2.8671668   -4.1979638     2.828889   -1.3690747 
   1.8706977    2.9768348   -4.1743475     2.805345   -1.3690024 
   1.8917245    2.8486415   -4.2059092    2.8368774   -1.3690318 
   1.8856961    2.8718211   -4.1967097     2.827837   -1.3688727 
   1.8508956    3.0747268   -4.1445959    2.7756494   -1.3689466 
    1.885792    2.9232855   -4.1966498    2.8279808   -1.3686691 
   1.8793901    2.9758419   -4.1868643    2.8183804   -1.3684839 
   1.8598741    3.0630305   -4.1576021    2.7891137   -1.3684884 
   1.8771891    2.9583125   -4.1837565    2.8150797   -1.3686768 
   1.8827266     2.911939   -4.1919786    2.8233838   -1.3685948 
   1.8567949    3.0452291   -4.1531272    2.7844961   -1.3686311 
   1.8729401    2.9982448   -4.1779058    2.8087077   -1.3691981 
   1.8711733    3.0190979   -4.1751111    2.8060583   -1.3690528 
Loop time of 7.10287 on 8 procs for 5000 steps with 4000 atoms

Performance: 121640.979 tau/day, 703.941 timesteps/s
63.8% CPU use with 8 MPI tasks x no OpenMP threads

MPI task timing breakdown:
Section |  min time  |  avg time  |  max time  |%varavg| %total
---------------------------------------------------------------
Pair    | 2.8658     | 3.0507     | 3.445      |  10.4 | 42.95
Neigh   | 0.31003    | 0.32879    | 0.37429    |   3.6 |  4.63
Comm    | 3.1941     | 3.6417     | 3.8521     |  10.8 | 51.27
Output  | 0.01246    | 0.016343   | 0.032868   |   5.1 |  0.23
Modify  | 0.041619   | 0.047413   | 0.054895   |   2.2 |  0.67
Other   |            | 0.01794    |            |       |  0.25

Nlocal:    500 ave 510 max 491 min
Histogram: 1 1 2 0 1 0 0 1 0 2
Nghost:    2130 ave 2136 max 2122 min
Histogram: 1 0 1 1 0 1 1 1 0 2
Neighs:    26283 ave 27473 max 25348 min
Histogram: 1 1 1 2 0 1 0 0 0 2

Total # of neighbors = 210264
Ave neighs/atom = 52.566
Neighbor list builds = 250
Dangerous builds not checked
Total wall time: 0:00:07
