LAMMPS (11 Aug 2017)
# 3d Lennard-Jones melt

units		lj
atom_style	atomic
boundary p p p

variable	xx equal ${size}
variable	xx equal 10
variable	yy equal ${size}
variable	yy equal 10
variable	zz equal ${size}
variable	zz equal 10


lattice		fcc ${rho}
lattice		fcc 0.267400
Lattice spacing in x,y,z = 2.46396 2.46396 2.46396
region		box block 0 ${xx} 0 ${yy} 0 ${zz}
region		box block 0 10 0 ${yy} 0 ${zz}
region		box block 0 10 0 10 0 ${zz}
region		box block 0 10 0 10 0 10
create_box	1 box
Created orthogonal box = (0 0 0) to (24.6396 24.6396 24.6396)
  2 by 2 by 2 MPI processor grid
create_atoms	1 box
Created 4000 atoms
mass		1 1.0 #39.948

velocity	all create ${T} 1 loop geom dist uniform#create temp seed
velocity	all create 1.940000 1 loop geom dist uniform
timestep    ${dt}
timestep    0.002000

pair_style	lj/cut 3.0
pair_coeff	1 1 1.0 1.0 3.0

neighbor	0.3 bin
neigh_modify	delay 0 every 20 check no

fix	1 all nve

thermo ${Dump}
thermo 50

thermo_style custom temp press pe ke etotal

#dump dump all custom ${Dump} dump.xyz id type x y z vx vy vz
run		${Run}
run		5000
Neighbor list info ...
  update every 20 steps, delay 0 steps, check no
  max neighbors/atom: 2000, page size: 100000
  master list distance cutoff = 3.3
  ghost atom cutoff = 3.3
  binsize = 1.65, bins = 15 15 15
  1 neighbor lists, perpetual/occasional/extra = 1 0 0
  (1) pair lj/cut, perpetual
      attributes: half, newton on
      pair build: half/bin/atomonly/newton
      stencil: half/bin/3d/newton
      bin: standard
Per MPI rank memory allocation (min/avg/max) = 2.608 | 2.608 | 2.608 Mbytes
Temp Press PotEng KinEng TotEng 
        1.94  0.064137685  -0.88074467    2.9092725    2.0285278 
   2.0548229    0.0152303   -1.0820706    3.0814638    1.9993932 
   2.0620392     0.647971   -1.0934022    3.0922856    1.9988834 
   2.2423121   0.69361078   -1.3646864    3.3626273    1.9979409 
   2.3153032   0.66240585   -1.4744414    3.4720866    1.9976452 
   2.3233463   0.65657412   -1.4867877    3.4841483    1.9973605 
   2.3541576   0.57989849   -1.5332203    3.5303537    1.9971333 
    2.332448   0.64055049   -1.5009631    3.4977973    1.9968342 
   2.3655317   0.57861181   -1.5508192    3.5474105    1.9965912 
   2.3481537   0.64478347   -1.5250503    3.5213501    1.9962998 
   2.3655266   0.62438276   -1.5512229    3.5474029      1.99618 
   2.3525851   0.65910894   -1.5318068    3.5279954    1.9961887 
   2.3540916   0.66636066   -1.5341579    3.5302547    1.9960968 
   2.3567716   0.66778375   -1.5381382    3.5342736    1.9961354 
   2.3618635   0.65151489   -1.5458747    3.5419096    1.9960348 
   2.3749776    0.6171452   -1.5655948    3.5615758     1.995981 
   2.3777388   0.62557509   -1.5698892    3.5657166    1.9958273 
   2.3752973   0.64945189    -1.566409    3.5620552    1.9956461 
    2.382994   0.61904931   -1.5779904    3.5735973    1.9956069 
   2.3753585   0.62252495   -1.5662425     3.562147    1.9959045 
   2.3654854   0.62575541    -1.551502     3.547341     1.995839 
   2.3677448    0.6111557   -1.5548931    3.5507293    1.9958362 
    2.359026   0.65535772   -1.5419057    3.5376543    1.9957486 
   2.3681487   0.63723561   -1.5556285     3.551335    1.9957065 
   2.3579666   0.66080974   -1.5402574    3.5360657    1.9958084 
   2.3776094    0.6242827   -1.5697425    3.5655225    1.9957801 
    2.381564    0.6488778   -1.5757252    3.5714528    1.9957276 
   2.3715326   0.68450443   -1.5607955    3.5564096    1.9956142 
   2.3685746   0.66550235   -1.5563588    3.5519737     1.995615 
   2.3848333   0.61581241   -1.5808339    3.5763556    1.9955217 
   2.3849639   0.61807348   -1.5811411    3.5765515    1.9954104 
   2.3667194   0.68170768   -1.5539335    3.5491916    1.9952581 
   2.3715263   0.67548241   -1.5608169    3.5564001    1.9955832 
   2.3908924   0.61554364   -1.5899123    3.5854421    1.9955298 
   2.3660496   0.66945733   -1.5528366    3.5481871    1.9953505 
    2.388201   0.62437291   -1.5860119    3.5814059     1.995394 
   2.3755328   0.63659479   -1.5669589    3.5624083    1.9954494 
   2.3654016   0.67123985   -1.5516312    3.5472153    1.9955841 
   2.3758482   0.63532703   -1.5672135    3.5628814     1.995668 
   2.3719282   0.63558916   -1.5614468    3.5570028     1.995556 
   2.3716403   0.62234615   -1.5607367    3.5565711    1.9958344 
    2.364811   0.62743133   -1.5501966    3.5463297    1.9961331 
   2.3611593   0.63656044   -1.5448493    3.5408535    1.9960042 
   2.3755894   0.61865772   -1.5667361    3.5624933    1.9957572 
   2.3736816   0.64298995    -1.564032    3.5596323    1.9956002 
   2.3761443   0.63280705   -1.5674367    3.5633254    1.9958888 
   2.3815004   0.62955678    -1.575642    3.5713576    1.9957156 
   2.3847193   0.62391907    -1.580678    3.5761847    1.9955067 
   2.3815434   0.64006752   -1.5759761     3.571422    1.9954459 
   2.3971895    0.6072614   -1.5993846    3.5948853    1.9955007 
   2.3706676   0.66604976   -1.5596916    3.5551124    1.9954208 
   2.3801618   0.64333004   -1.5741205    3.5693501    1.9952296 
    2.391508   0.60973876   -1.5911023    3.5863652    1.9952629 
   2.3851434   0.64542729   -1.5812605    3.5768207    1.9955602 
   2.3688083   0.69987441   -1.5569435    3.5523241    1.9953806 
   2.3714115   0.68720557   -1.5609604     3.556228    1.9952676 
   2.3947523   0.62608331   -1.5960698    3.5912304    1.9951605 
   2.3881139   0.65056797   -1.5859681    3.5812753    1.9953072 
   2.3913902   0.65888896   -1.5909761    3.5861886    1.9952124 
   2.3886918   0.66731122   -1.5870872     3.582142    1.9950548 
   2.3796492   0.65569522   -1.5734057    3.5685814    1.9951758 
   2.3887811   0.62195485   -1.5872163    3.5822759    1.9950596 
   2.3777281   0.65319835   -1.5706184    3.5657006    1.9950822 
   2.3808107     0.647168   -1.5751705    3.5703232    1.9951527 
   2.4138539   0.57862451   -1.6245229    3.6198756    1.9953527 
   2.3837684    0.6506688   -1.5794664    3.5747587    1.9952923 
    2.374372   0.66016514   -1.5650525    3.5606677    1.9956151 
   2.3907726   0.61723608   -1.5897083    3.5852623     1.995554 
   2.3725894   0.65353572    -1.562272    3.5579944    1.9957225 
   2.3613588   0.65587453   -1.5453273    3.5411528    1.9958254 
   2.3695127   0.63187372   -1.5573968    3.5533806    1.9959837 
   2.3687106   0.62198903   -1.5564829    3.5521776    1.9956947 
   2.3647185   0.64487899   -1.5503497     3.546191    1.9958413 
   2.3769168   0.62281579    -1.568753    3.5644839    1.9957309 
   2.3834537   0.62643982   -1.5786014    3.5742868    1.9956853 
   2.3920153   0.63228853   -1.5914869    3.5871259     1.995639 
   2.3626648   0.68857911   -1.5475899    3.5431113    1.9955214 
   2.3998065   0.60328273   -1.6034058    3.5988097    1.9954039 
   2.3665675   0.67471682   -1.5535714    3.5489639    1.9953924 
   2.3779096   0.63846803   -1.5706291    3.5659726    1.9953435 
   2.3809374    0.6511082   -1.5749821    3.5705133    1.9955311 
   2.3816269   0.64598933    -1.576153    3.5715472    1.9953943 
   2.3785617   0.64264475    -1.571416    3.5669506    1.9955346 
   2.3905446   0.62545882   -1.5893515    3.5849204     1.995569 
   2.3884476   0.63017491   -1.5860668    3.5817758     1.995709 
   2.3831535   0.63303723   -1.5783162    3.5738365    1.9955204 
   2.3663899   0.67617448   -1.5531923    3.5486975    1.9955052 
   2.3675866   0.65542991   -1.5550895    3.5504921    1.9954026 
   2.3773725    0.6248366   -1.5697198    3.5651672    1.9954474 
   2.3788267   0.62752467   -1.5717845     3.567348    1.9955635 
   2.3603084   0.68510715   -1.5441317    3.5395775    1.9954457 
   2.3754681   0.66567404   -1.5670152    3.5623114    1.9952962 
   2.3937493   0.63254505   -1.5943382    3.5897263     1.995388 
   2.3676301   0.69065839   -1.5550214    3.5505572    1.9955358 
   2.3942143   0.62652887    -1.594919    3.5904236    1.9955045 
   2.3948634   0.61588879   -1.5959915     3.591397    1.9954055 
   2.3822684   0.64409903   -1.5771389    3.5725092    1.9953703 
   2.3839699   0.64608239   -1.5797515    3.5750608    1.9953093 
   2.3877776   0.63880399   -1.5856545     3.580771    1.9951165 
    2.379669   0.64303618    -1.573592    3.5686112    1.9950192 
   2.3853351   0.62881579   -1.5818778    3.5771081    1.9952303 
Loop time of 5.09164 on 8 procs for 5000 steps with 4000 atoms

Performance: 169689.895 tau/day, 982.002 timesteps/s
48.9% CPU use with 8 MPI tasks x no OpenMP threads

MPI task timing breakdown:
Section |  min time  |  avg time  |  max time  |%varavg| %total
---------------------------------------------------------------
Pair    | 1.1364     | 1.222      | 1.3545     |   5.3 | 24.00
Neigh   | 0.17828    | 0.19527    | 0.23681    |   3.8 |  3.84
Comm    | 3.4697     | 3.608      | 3.7167     |   3.7 | 70.86
Output  | 0.0060937  | 0.0086499  | 0.021374   |   5.2 |  0.17
Modify  | 0.042949   | 0.047342   | 0.060097   |   2.9 |  0.93
Other   |            | 0.01033    |            |       |  0.20

Nlocal:    500 ave 518 max 483 min
Histogram: 1 0 1 1 1 2 1 0 0 1
Nghost:    1300.25 ave 1356 max 1268 min
Histogram: 2 1 2 1 0 0 0 0 1 1
Neighs:    10033.4 ave 10669 max 9541 min
Histogram: 2 0 0 0 3 2 0 0 0 1

Total # of neighbors = 80267
Ave neighs/atom = 20.0667
Neighbor list builds = 250
Dangerous builds not checked
Total wall time: 0:00:05
