LAMMPS (11 Aug 2017)
# 3d Lennard-Jones melt

units		lj
atom_style	atomic
boundary p p p

variable	xx equal ${size}
variable	xx equal 10
variable	yy equal ${size}
variable	yy equal 10
variable	zz equal ${size}
variable	zz equal 10


lattice		fcc ${rho}
lattice		fcc 0.128800
Lattice spacing in x,y,z = 3.14327 3.14327 3.14327
region		box block 0 ${xx} 0 ${yy} 0 ${zz}
region		box block 0 10 0 ${yy} 0 ${zz}
region		box block 0 10 0 10 0 ${zz}
region		box block 0 10 0 10 0 10
create_box	1 box
Created orthogonal box = (0 0 0) to (31.4327 31.4327 31.4327)
  2 by 2 by 2 MPI processor grid
create_atoms	1 box
Created 4000 atoms
mass		1 1.0 #39.948

velocity	all create ${T} 1 loop geom dist uniform#create temp seed
velocity	all create 2.900000 1 loop geom dist uniform
timestep    ${dt}
timestep    0.002000

pair_style	lj/cut 3.0
pair_coeff	1 1 1.0 1.0 3.0

neighbor	0.3 bin
neigh_modify	delay 0 every 20 check no

fix	1 all nve

thermo ${Dump}
thermo 50

thermo_style custom temp press pe ke etotal

#dump dump all custom ${Dump} dump.xyz id type x y z vx vy vz
run		${Run}
run		5000
Neighbor list info ...
  update every 20 steps, delay 0 steps, check no
  max neighbors/atom: 2000, page size: 100000
  master list distance cutoff = 3.3
  ghost atom cutoff = 3.3
  binsize = 1.65, bins = 20 20 20
  1 neighbor lists, perpetual/occasional/extra = 1 0 0
  (1) pair lj/cut, perpetual
      attributes: half, newton on
      pair build: half/bin/atomonly/newton
      stencil: half/bin/3d/newton
      bin: standard
Per MPI rank memory allocation (min/avg/max) = 2.615 | 2.615 | 2.615 Mbytes
Temp Press PotEng KinEng TotEng 
         2.9   0.32299607  -0.19742202    4.3489125    4.1514905 
   2.9274752   0.31537893  -0.24302179    4.3901149    4.1470931 
   3.0092857   0.34603387   -0.3662525       4.5128    4.1465475 
   3.0477069    0.4878072  -0.42329691    4.5704174    4.1471205 
   3.1678765   0.43843611  -0.60350096    4.7506268    4.1471259 
   3.1950852    0.4380791  -0.64492158    4.7914296    4.1465081 
   3.2025699   0.44176064  -0.65655961    4.8026539    4.1460943 
   3.2014816   0.44645252  -0.65513032    4.8010218    4.1458915 
   3.2095641   0.43213888  -0.66738509    4.8131426    4.1457575 
   3.2068925   0.43916853   -0.6635222    4.8091362     4.145614 
   3.2007427   0.44895351  -0.65427761    4.7999138    4.1456362 
   3.2123232    0.4309174  -0.67181771    4.8172801    4.1454624 
    3.213677   0.43244901  -0.67384619    4.8193104    4.1454642 
   3.2142223   0.43821866   -0.6747984    4.8201281    4.1453297 
   3.2372304   0.41678713   -0.7093604    4.8546317    4.1452713 
   3.2279214   0.43564116  -0.69528852    4.8406716     4.145383 
     3.22254   0.44030444  -0.68737346    4.8326016    4.1452282 
    3.223183   0.42977263  -0.68834126    4.8335658    4.1452245 
   3.2325915    0.4155644   -0.7026144     4.847675    4.1450606 
   3.2248019   0.42409942  -0.69103254    4.8359936    4.1449611 
    3.228636   0.41771135   -0.6966238    4.8417432    4.1451194 
   3.2182441   0.43576699  -0.68100856    4.8261593    4.1451507 
   3.2170457   0.44703491  -0.67928306    4.8243621     4.145079 
   3.2208204   0.44166669  -0.68495247    4.8300227    4.1450703 
   3.2289665   0.42715025  -0.69713635    4.8422389    4.1451026 
    3.231374   0.42430641  -0.70080451    4.8458493    4.1450447 
   3.2007421   0.46090269  -0.65498501    4.7999128    4.1449278 
   3.2278715   0.43636696  -0.69552297    4.8405968    4.1450739 
   3.2405685   0.41606702  -0.71454437    4.8596375    4.1450932 
   3.2209136   0.43638539  -0.68508842    4.8301626    4.1450742 
   3.2417146   0.41870231  -0.71617191    4.8613562    4.1451843 
   3.2279645   0.43859799  -0.69571809    4.8407362    4.1450181 
    3.240583   0.42765006  -0.71480933    4.8596593    4.1448499 
   3.2402554   0.43074653  -0.71426358    4.8591681    4.1449045 
   3.2346207   0.43633751  -0.70570644    4.8507181    4.1450117 
   3.2350524   0.43502522  -0.70622185    4.8513655    4.1451436 
   3.2376271   0.43188419   -0.7103798    4.8552265    4.1448467 
   3.2224555   0.44223803  -0.68759246    4.8324749    4.1448824 
   3.2200823   0.44171743   -0.6841188     4.828916    4.1447972 
   3.2295418   0.42556798  -0.69831827    4.8431016    4.1447833 
   3.2243212   0.42844881  -0.69049615    4.8352727    4.1447766 
   3.2233722   0.42994138   -0.6890199    4.8338495    4.1448296 
   3.2209802   0.43035145  -0.68534512    4.8302624    4.1449173 
   3.2299408   0.42381701   -0.6988238       4.8437    4.1448762 
    3.232035   0.42774484   -0.7020039    4.8468405    4.1448366 
   3.2336096   0.42597149  -0.70429407    4.8492019    4.1449078 
   3.2372055   0.42333358  -0.70950538    4.8545943    4.1450889 
   3.2229876   0.43733066  -0.68838626    4.8332728    4.1448865 
   3.2278915   0.43935026  -0.69575087    4.8406268    4.1448759 
    3.223815   0.44344194  -0.68964942    4.8345136    4.1448642 
   3.2330409   0.43163902  -0.70344939    4.8483489    4.1448996 
   3.2290947   0.43499807  -0.69763817    4.8424311    4.1447929 
   3.2358224   0.42837562  -0.70768528    4.8525201    4.1448348 
   3.2423419   0.42342401   -0.7173482    4.8622969    4.1449487 
   3.2340143   0.43020141  -0.70504684    4.8498087    4.1447619 
   3.2338584   0.42061418  -0.70473512    4.8495749    4.1448398 
   3.2422467   0.42135661  -0.71722919    4.8621542     4.144925 
   3.2274298   0.44288945  -0.69502988    4.8399344    4.1449046 
   3.2268017   0.44375691  -0.69408019    4.8389925    4.1449123 
   3.2346152   0.43902825  -0.70587694    4.8507098    4.1448329 
   3.2444298   0.42355451  -0.72060875     4.865428    4.1448192 
   3.2265821   0.43828608  -0.69390555    4.8386633    4.1447577 
   3.2386518   0.42854329  -0.71213332    4.8567631    4.1446298 
   3.2392626   0.42822812  -0.71298217    4.8576792    4.1446971 
   3.2312113   0.44083794  -0.70102141    4.8456053    4.1445839 
   3.2295892   0.44848955  -0.69857523    4.8431727    4.1445975 
   3.2332841   0.44099963   -0.7041507    4.8487136    4.1445629 
   3.2344807   0.43877646  -0.70598951    4.8505081    4.1445186 
   3.2463684   0.42629531   -0.7238158    4.8683352    4.1445194 
    3.231379   0.43814691  -0.70115144    4.8458568    4.1447054 
   3.2325583   0.43355685  -0.70284564    4.8476253    4.1447796 
   3.2334942    0.4316901  -0.70416956    4.8490287    4.1448591 
   3.2199883   0.43757923  -0.68398269    4.8287749    4.1447923 
   3.2361046   0.41880966  -0.70808961    4.8529434    4.1448538 
   3.2373103   0.43049124  -0.70991013    4.8547515    4.1448413 
   3.2424809   0.43139349  -0.71764989    4.8625054    4.1448556 
   3.2310355   0.43340267  -0.70031802    4.8453417    4.1450236 
   3.2264396    0.4422648  -0.69359054    4.8384494    4.1448589 
   3.2262936   0.44540784  -0.69344106    4.8382305    4.1447895 
   3.2421552   0.42856122  -0.71722935    4.8620169    4.1447876 
   3.2323515   0.43685442  -0.70261772    4.8473151    4.1446973 
   3.2335758   0.43822395  -0.70431164    4.8491512    4.1448395 
   3.2315081   0.43806344  -0.70111607    4.8460504    4.1449343 
   3.2499576   0.41271196  -0.72877624    4.8737176    4.1449414 
    3.241408    0.4194418  -0.71595809    4.8608965    4.1449384 
   3.2339274   0.43326026  -0.70490152    4.8496784    4.1447768 
   3.2169024   0.44305248  -0.67929778    4.8241473    4.1448495 
   3.2301624     0.426488  -0.69910181    4.8440323    4.1449305 
   3.2215927   0.43862555  -0.68626518    4.8311809    4.1449157 
   3.2265248   0.43910418  -0.69371625    4.8385773     4.144861 
   3.2436429    0.4265728  -0.71949798     4.864248      4.14475 
   3.2276428   0.43563887   -0.6955482    4.8402538    4.1447056 
    3.230489   0.42687823  -0.69992204    4.8445221    4.1446001 
   3.2301779   0.43488254  -0.69939405    4.8440555    4.1446615 
   3.2322151   0.43620212  -0.70231358    4.8471105     4.144797 
   3.2285817   0.43948139  -0.69696257    4.8416618    4.1446992 
   3.2270816    0.4421119  -0.69472814    4.8394123    4.1446842 
    3.236833   0.42471107  -0.70931556    4.8540356    4.1447201 
   3.2322798   0.42743265  -0.70254712    4.8472076    4.1446605 
   3.2301253   0.42989325  -0.69918493    4.8439766    4.1447917 
     3.23044   0.43333646  -0.69976344    4.8444485    4.1446851 
Loop time of 1.86374 on 8 procs for 5000 steps with 4000 atoms

Performance: 463585.133 tau/day, 2682.784 timesteps/s
60.4% CPU use with 8 MPI tasks x no OpenMP threads

MPI task timing breakdown:
Section |  min time  |  avg time  |  max time  |%varavg| %total
---------------------------------------------------------------
Pair    | 0.52996    | 0.56819    | 0.59552    |   2.5 | 30.49
Neigh   | 0.1169     | 0.123      | 0.12845    |   1.1 |  6.60
Comm    | 1.085      | 1.1184     | 1.1648     |   2.1 | 60.01
Output  | 0.0033443  | 0.0042163  | 0.0080559  |   2.2 |  0.23
Modify  | 0.039495   | 0.041079   | 0.042341   |   0.4 |  2.20
Other   |            | 0.008893   |            |       |  0.48

Nlocal:    500 ave 535 max 488 min
Histogram: 2 3 2 0 0 0 0 0 0 1
Nghost:    931 ave 970 max 895 min
Histogram: 1 0 2 0 1 1 1 1 0 1
Neighs:    4827.75 ave 5497 max 4623 min
Histogram: 3 3 0 1 0 0 0 0 0 1

Total # of neighbors = 38622
Ave neighs/atom = 9.6555
Neighbor list builds = 250
Dangerous builds not checked
Total wall time: 0:00:01
