LAMMPS (11 Aug 2017)
# 3d Lennard-Jones melt

units		lj
atom_style	atomic
boundary p p p

variable	xx equal ${size}
variable	xx equal 10
variable	yy equal ${size}
variable	yy equal 10
variable	zz equal ${size}
variable	zz equal 10


lattice		fcc ${rho}
lattice		fcc 0.346600
Lattice spacing in x,y,z = 2.25984 2.25984 2.25984
region		box block 0 ${xx} 0 ${yy} 0 ${zz}
region		box block 0 10 0 ${yy} 0 ${zz}
region		box block 0 10 0 10 0 ${zz}
region		box block 0 10 0 10 0 10
create_box	1 box
Created orthogonal box = (0 0 0) to (22.5984 22.5984 22.5984)
  2 by 2 by 2 MPI processor grid
create_atoms	1 box
Created 4000 atoms
mass		1 1.0 #39.948

velocity	all create ${T} 1 loop geom dist uniform#create temp seed
velocity	all create 3.320000 1 loop geom dist uniform
timestep    ${dt}
timestep    0.002000

pair_style	lj/cut 3.0
pair_coeff	1 1 1.0 1.0 3.0

neighbor	0.3 bin
neigh_modify	delay 0 every 20 check no

fix	1 all nve

thermo ${Dump}
thermo 50

thermo_style custom temp press pe ke etotal

#dump dump all custom ${Dump} dump.xyz id type x y z vx vy vz
run		${Run}
run		5000
Neighbor list info ...
  update every 20 steps, delay 0 steps, check no
  max neighbors/atom: 2000, page size: 100000
  master list distance cutoff = 3.3
  ghost atom cutoff = 3.3
  binsize = 1.65, bins = 14 14 14
  1 neighbor lists, perpetual/occasional/extra = 1 0 0
  (1) pair lj/cut, perpetual
      attributes: half, newton on
      pair build: half/bin/atomonly/newton
      stencil: half/bin/3d/newton
      bin: standard
Per MPI rank memory allocation (min/avg/max) = 2.608 | 2.608 | 2.608 Mbytes
Temp Press PotEng KinEng TotEng 
        3.32   0.13595813   -1.5509574     4.978755    3.4277976 
   3.4858687   0.48850905   -1.7927785    5.2274959    3.4347174 
   3.3964963    1.7306778   -1.6557413    5.0934708    3.4377295 
    3.489497    1.6969295   -1.7951552    5.2329369    3.4377818 
   3.5007995    1.6708673   -1.8123504    5.2498865     3.437536 
   3.4941925    1.6545021   -1.8029482    5.2399784    3.4370302 
   3.4956119    1.6244554   -1.8052918     5.242107    3.4368152 
   3.4685334    1.6577209   -1.7644079    5.2014995    3.4370915 
   3.4963534    1.6030054   -1.8063846     5.243219    3.4368344 
   3.4697736    1.6680245   -1.7662797    5.2033592    3.4370795 
   3.5014206    1.6003561   -1.8137484    5.2508178    3.4370694 
   3.5054692    1.5795357   -1.8200821    5.2568892    3.4368071 
   3.4931508    1.6088175   -1.8015949    5.2384162    3.4368214 
   3.5027723    1.5919954   -1.8160797    5.2528449    3.4367652 
   3.4931026     1.631043   -1.8014273    5.2383441    3.4369168 
   3.4802453    1.6813118   -1.7821507    5.2190628    3.4369121 
   3.5163531    1.5683947   -1.8363777    5.2732111    3.4368334 
   3.5163761    1.5828025   -1.8365979    5.2732455    3.4366476 
   3.4989888    1.6342638   -1.8106592    5.2471711    3.4365119 
   3.5222029    1.5591161   -1.8456062    5.2819835    3.4363773 
   3.5077134    1.6107673   -1.8239193    5.2602548    3.4363354 
   3.5192987    1.6089849   -1.8413323    5.2776283     3.436296 
   3.5134893    1.6449856   -1.8325212    5.2689164    3.4363952 
   3.5083515    1.6604074   -1.8245939    5.2612116    3.4366177 
   3.5198591    1.6363386   -1.8416521    5.2784686    3.4368166 
   3.5298118    1.5978545   -1.8568386    5.2933941    3.4365555 
   3.5087302    1.6290829   -1.8251834    5.2617795    3.4365961 
   3.5067618    1.5961828   -1.8223583    5.2588276    3.4364694 
   3.5087558    1.5828337   -1.8249365    5.2618179    3.4368814 
    3.502827    1.6242711   -1.8162625    5.2529269    3.4366644 
   3.4966029     1.632203    -1.806763    5.2435931    3.4368301 
   3.4974064    1.6343834   -1.8081242    5.2447981    3.4366739 
   3.5156937    1.5880834     -1.83556    5.2722221    3.4366621 
   3.5113184    1.5920315   -1.8289087    5.2656609    3.4367522 
   3.5225089     1.579021   -1.8456844    5.2824424     3.436758 
   3.5060072    1.6275241   -1.8209972     5.257696    3.4366988 
   3.5110098     1.581567   -1.8285033    5.2651981    3.4366947 
   3.4863082    1.6578049   -1.7915129    5.2281549     3.436642 
   3.5061157    1.5981179   -1.8213375    5.2578587    3.4365212 
    3.507008    1.6168011   -1.8229908    5.2591969    3.4362061 
   3.4888754    1.7028477   -1.7955328    5.2320048     3.436472 
   3.5077626    1.6342238   -1.8237494    5.2603285    3.4365791 
   3.4989997    1.6597439   -1.8104145    5.2471874    3.4367729 
    3.519495    1.5897033   -1.8413047    5.2779227    3.4366181 
   3.4932607    1.6205795   -1.8019448    5.2385811    3.4366363 
   3.5040485    1.5982398   -1.8180485    5.2547587    3.4367102 
    3.503195    1.6073786   -1.8166095    5.2534788    3.4368693 
   3.4983034    1.5958751   -1.8090837    5.2461432    3.4370596 
   3.5084849    1.5505154    -1.824576    5.2614117    3.4368356 
   3.4683359    1.6609794     -1.76455    5.2012032    3.4366532 
   3.5015313    1.6161975   -1.8144828    5.2509839    3.4365011 
   3.4629845    1.7329251   -1.7563657    5.1931782    3.4368125 
   3.5135348    1.5849993   -1.8323727    5.2689846    3.4366118 
   3.4802088    1.6982781   -1.7823496    5.2190082    3.4366585 
   3.5112539    1.5968296   -1.8288172    5.2655641    3.4367469 
   3.5021865    1.6285874   -1.8151603    5.2519664    3.4368061 
    3.505679    1.6332729   -1.8205827    5.2572038    3.4366211 
   3.5026111    1.6316716   -1.8161486    5.2526032    3.4364546 
   3.4893033    1.6831859   -1.7964206    5.2326465    3.4362258 
   3.4948789    1.6490497    -1.804564    5.2410077    3.4364437 
   3.5052715    1.6192833    -1.820136    5.2565928    3.4364568 
    3.498701    1.6213126   -1.8101107    5.2467396    3.4366288 
   3.5114681    1.5801075   -1.8291478    5.2658853    3.4367376 
   3.4875596     1.635525   -1.7931734    5.2300315    3.4368581 
   3.5024805    1.6004836   -1.8155407    5.2524073    3.4368666 
   3.4913255    1.6488179   -1.7988965     5.235679    3.4367825 
   3.5135984     1.577535   -1.8322183    5.2690801    3.4368617 
   3.4855004    1.6468327    -1.790354    5.2269435    3.4365895 
    3.520184    1.5703081   -1.8424479    5.2789559     3.436508 
   3.5152686    1.5980748   -1.8348981    5.2715846    3.4366865 
    3.508258    1.6348404   -1.8243694    5.2610713    3.4367019 
   3.5047515    1.6311747   -1.8190775     5.255813    3.4367355 
   3.5129131    1.5903981   -1.8310992    5.2680523    3.4369531 
   3.5151555    1.5921173    -1.834565    5.2714151    3.4368501 
   3.5035155    1.6367355   -1.8173469    5.2539594    3.4366125 
   3.4962948    1.6498717    -1.806347     5.243131    3.4367841 
   3.5001957    1.6504872   -1.8123126     5.248981    3.4366684 
   3.5015536     1.642665   -1.8143911    5.2510173    3.4366261 
   3.5379944    1.5382709   -1.8689845    5.3056648    3.4366803 
   3.5304203    1.5683209   -1.8576087    5.2943065    3.4366978 
   3.5009073    1.6546471   -1.8132759    5.2500482    3.4367722 
   3.5052573    1.6378487   -1.8201119    5.2565715    3.4364595 
   3.5455126    1.5283971   -1.8806632    5.3169393    3.4362761 
   3.5252767    1.5945849   -1.8502591     5.286593     3.436334 
    3.509562    1.6464453   -1.8264814     5.263027    3.4365456 
   3.5066151     1.660092   -1.8221166    5.2586076     3.436491 
   3.4889704    1.6789468   -1.7955865    5.2321472    3.4365607 
   3.5035138    1.6155135   -1.8177389     5.253957    3.4362181 
   3.4874031    1.6508927   -1.7935885    5.2297969    3.4362084 
   3.5097346    1.6097414   -1.8268276    5.2632857    3.4364581 
   3.4857802    1.6751661   -1.7912143    5.2273631    3.4361488 
   3.5229445    1.5427653   -1.8467947    5.2830956    3.4363009 
   3.5052245    1.6061647   -1.8199827    5.2565222    3.4365396 
   3.5000211    1.6549906   -1.8122751    5.2487192    3.4364441 
   3.5191765    1.6114382   -1.8407865    5.2774451    3.4366586 
   3.5049344     1.661201   -1.8197527    5.2560873    3.4363346 
   3.5126648    1.6504193    -1.831085      5.26768     3.436595 
   3.5223928    1.5995562   -1.8455752    5.2822683    3.4366931 
   3.5176805    1.5999625   -1.8387082    5.2752017    3.4364934 
   3.5267919    1.5627111    -1.852167    5.2888654    3.4366984 
   3.4941315    1.6627199   -1.8030704    5.2398869    3.4368165 
Loop time of 6.82424 on 8 procs for 5000 steps with 4000 atoms

Performance: 126607.491 tau/day, 732.682 timesteps/s
45.8% CPU use with 8 MPI tasks x no OpenMP threads

MPI task timing breakdown:
Section |  min time  |  avg time  |  max time  |%varavg| %total
---------------------------------------------------------------
Pair    | 1.491      | 1.5872     | 1.6839     |   4.6 | 23.26
Neigh   | 0.20314    | 0.21745    | 0.25295    |   3.3 |  3.19
Comm    | 4.7985     | 4.9393     | 5.0448     |   3.5 | 72.38
Output  | 0.0077875  | 0.021492   | 0.036591   |   7.4 |  0.31
Modify  | 0.043657   | 0.046878   | 0.050953   |   1.3 |  0.69
Other   |            | 0.0119     |            |       |  0.17

Nlocal:    500 ave 531 max 476 min
Histogram: 1 1 2 0 0 1 1 1 0 1
Nghost:    1501.62 ave 1529 max 1471 min
Histogram: 1 0 1 1 0 1 2 1 0 1
Neighs:    12907.2 ave 14490 max 11531 min
Histogram: 1 0 1 2 0 2 1 0 0 1

Total # of neighbors = 103258
Ave neighs/atom = 25.8145
Neighbor list builds = 250
Dangerous builds not checked
Total wall time: 0:00:06
