LAMMPS (11 Aug 2017)
# 3d Lennard-Jones melt

units		lj
atom_style	atomic
boundary p p p

variable	xx equal ${size}
variable	xx equal 10
variable	yy equal ${size}
variable	yy equal 10
variable	zz equal ${size}
variable	zz equal 10


lattice		fcc ${rho}
lattice		fcc 0.049600
Lattice spacing in x,y,z = 4.32042 4.32042 4.32042
region		box block 0 ${xx} 0 ${yy} 0 ${zz}
region		box block 0 10 0 ${yy} 0 ${zz}
region		box block 0 10 0 10 0 ${zz}
region		box block 0 10 0 10 0 10
create_box	1 box
Created orthogonal box = (0 0 0) to (43.2042 43.2042 43.2042)
  2 by 2 by 2 MPI processor grid
create_atoms	1 box
Created 4000 atoms
mass		1 1.0 #39.948

velocity	all create ${T} 1 loop geom dist uniform#create temp seed
velocity	all create 0.920000 1 loop geom dist uniform
timestep    ${dt}
timestep    0.002000

pair_style	lj/cut 3.0
pair_coeff	1 1 1.0 1.0 3.0

neighbor	0.3 bin
neigh_modify	delay 0 every 20 check no

fix	1 all nve

thermo ${Dump}
thermo 50

thermo_style custom temp press pe ke etotal

#dump dump all custom ${Dump} dump.xyz id type x y z vx vy vz
run		${Run}
run		5000
Neighbor list info ...
  update every 20 steps, delay 0 steps, check no
  max neighbors/atom: 2000, page size: 100000
  master list distance cutoff = 3.3
  ghost atom cutoff = 3.3
  binsize = 1.65, bins = 27 27 27
  1 neighbor lists, perpetual/occasional/extra = 1 0 0
  (1) pair lj/cut, perpetual
      attributes: half, newton on
      pair build: half/bin/atomonly/newton
      stencil: half/bin/3d/newton
      bin: standard
Per MPI rank memory allocation (min/avg/max) = 2.598 | 2.598 | 2.598 Mbytes
Temp Press PotEng KinEng TotEng 
        0.92  0.045620592            0     1.379655     1.379655 
  0.92155407  0.044399955 -0.013104095    1.3819855    1.3688814 
  0.92501681  0.043875397 -0.020151636    1.3871783    1.3670267 
   0.9305707  0.043313867  -0.02867753    1.3955071    1.3668296 
  0.94077514  0.042373866 -0.043800565    1.4108099    1.3670094 
  0.96180934  0.041406313 -0.075155631    1.4423533    1.3671977 
  0.97839554  0.048561813 -0.099975205    1.4672264    1.3672512 
   1.0063792  0.051950915  -0.14203747    1.5091914    1.3671539 
   1.0318471   0.05270845  -0.18045773    1.5473838     1.366926 
   1.0520418  0.050135297  -0.21102502    1.5776682    1.3666432 
   1.0684755  0.046691221  -0.23600457    1.6023126     1.366308 
   1.0727575  0.048711365  -0.24268996     1.608734     1.366044 
    1.079092  0.049372442  -0.25240076    1.6182334    1.3658326 
   1.0877108  0.047994276   -0.2655114    1.6311584     1.365647 
   1.0939706  0.048245768  -0.27516979    1.6405456    1.3653758 
   1.0992404  0.048016685  -0.28319208    1.6484484    1.3652563 
   1.0975408  0.048730229  -0.28081125    1.6458997    1.3650884 
   1.1068662   0.04473835  -0.29495217    1.6598842    1.3649321 
   1.1041149  0.047837177  -0.29088105    1.6557583    1.3648773 
   1.1067634  0.048492585  -0.29489756    1.6597301    1.3648325 
   1.1094932  0.047655817  -0.29906167    1.6638238    1.3647621 
   1.1088166  0.048084154  -0.29803246    1.6628092    1.3647767 
   1.1103029  0.047888573  -0.30024253    1.6650379    1.3647954 
   1.1118999  0.048603911  -0.30274142    1.6674329    1.3646915 
   1.1143965  0.050111805  -0.30655451    1.6711769    1.3646224 
    1.122523  0.046993079  -0.31881804    1.6833635    1.3645455 
   1.1202366  0.048672775   -0.3154494    1.6799348    1.3644854 
   1.1182026  0.050938954  -0.31240034    1.6768845    1.3644842 
   1.1265989  0.047508719  -0.32507028    1.6894759    1.3644056 
   1.1237114  0.049245671  -0.32076331    1.6851457    1.3643824 
   1.1293533  0.048639841  -0.32925405    1.6936065    1.3643524 
   1.1275474  0.050941365  -0.32663238    1.6908983    1.3642659 
   1.1327829  0.048286708  -0.33441574    1.6987495    1.3643337 
    1.132136  0.048004185  -0.33352748    1.6977794     1.364252 
   1.1306672  0.048857647  -0.33136804    1.6955768    1.3642087 
   1.1361082   0.04674028  -0.33945949    1.7037362    1.3642767 
   1.1290071  0.049875916  -0.32874604    1.6930872    1.3643412 
   1.1333923  0.047137458  -0.33535323    1.6996634    1.3643102 
   1.1323904  0.047263079  -0.33394307     1.698161    1.3642179 
   1.1361943  0.047477233  -0.33960639    1.7038653    1.3642589 
   1.1362461  0.049928238  -0.33964601    1.7039431    1.3642971 
   1.1372483  0.050299075  -0.34122224     1.705446    1.3642238 
    1.139409  0.048344839  -0.34449877    1.7086862    1.3641874 
   1.1385627  0.049042531  -0.34325328    1.7074171    1.3641638 
   1.1393097   0.05010205  -0.34438543    1.7085373    1.3641519 
   1.1405998  0.049999867  -0.34633178     1.710472    1.3641402 
   1.1438268  0.047935504  -0.35126847    1.7153113    1.3640428 
   1.1394184  0.049197736  -0.34462075    1.7087004    1.3640796 
   1.1458596  0.046343585  -0.35427497    1.7183596    1.3640847 
    1.140129  0.050071417  -0.34573737    1.7097659    1.3640285 
   1.1457763  0.047991995  -0.35418381    1.7182347    1.3640509 
   1.1465634  0.046990098  -0.35532462    1.7194151    1.3640905 
   1.1439868   0.04792086  -0.35151353    1.7155512    1.3640376 
   1.1464818   0.04783817  -0.35528749    1.7192928    1.3640053 
   1.1495374  0.049740613  -0.35991876    1.7238751    1.3639563 
   1.1531511  0.050797056  -0.36545471    1.7292942    1.3638395 
   1.1546715  0.049475605    -0.367729    1.7315742    1.3638452 
   1.1611333  0.045668234  -0.37744712    1.7412646    1.3638175 
   1.1517752  0.049785936  -0.36344343    1.7272308    1.3637874 
   1.1570746  0.047692286  -0.37140891     1.735178    1.3637691 
   1.1545478  0.048938869  -0.36772395    1.7313888    1.3636648 
   1.1584395  0.047081275   -0.3734609    1.7372248    1.3637639 
   1.1558233  0.048271845  -0.36955025    1.7333016    1.3637513 
   1.1554835  0.049524323  -0.36900773     1.732792    1.3637842 
   1.1586919  0.048828738  -0.37385942    1.7376033    1.3637439 
   1.1586608   0.04918368  -0.37382119    1.7375566    1.3637354 
   1.1616327  0.048410481  -0.37832349    1.7420134    1.3636899 
   1.1602522  0.049837855  -0.37623256    1.7399432    1.3637106 
   1.1576516  0.051168058  -0.37227672    1.7360433    1.3637666 
   1.1608902  0.048674296  -0.37717281       1.7409    1.3637272 
   1.1580331  0.049059708  -0.37288523    1.7366153    1.3637301 
   1.1594439  0.048296748  -0.37502458    1.7387311    1.3637065 
   1.1548319  0.049978992  -0.36811194    1.7318149    1.3637029 
   1.1583501  0.047548036  -0.37340092    1.7370908    1.3636899 
   1.1568931  0.048480224  -0.37114922    1.7349058    1.3637566 
   1.1600948  0.048331759  -0.37600812    1.7397072    1.3636991 
   1.1563152  0.049476462  -0.37036869    1.7340391    1.3636704 
   1.1595943  0.046459846  -0.37526088    1.7389566    1.3636957 
   1.1564271  0.048162365  -0.37046116     1.734207    1.3637458 
   1.1610946  0.047387481  -0.37750892    1.7412065    1.3636976 
   1.1552421  0.050125463  -0.36877882    1.7324299    1.3636511 
   1.1607749  0.048020119  -0.37709129     1.740727    1.3636358 
   1.1575992  0.048772761  -0.37232011    1.7359647    1.3636446 
   1.1573911  0.048188588  -0.37200024    1.7356526    1.3636524 
   1.1555533  0.048881336  -0.36916503    1.7328967    1.3637316 
   1.1571683  0.047573843  -0.37160163    1.7353186    1.3637169 
   1.1546444  0.048342993  -0.36776346    1.7315335    1.3637701 
   1.1592541  0.046825965   -0.3746348    1.7384465    1.3638117 
   1.1607987  0.048384162   -0.3769096    1.7407627    1.3638531 
    1.157372  0.053016745  -0.37186744     1.735624    1.3637566 
   1.1637048  0.050832246  -0.38133028    1.7451209    1.3637906 
   1.1673115  0.048417642  -0.38681483    1.7505295    1.3637147 
   1.1676152  0.049395854  -0.38727499     1.750985      1.36371 
   1.1713954  0.049187264  -0.39302488    1.7566539     1.363629 
   1.1722001  0.049249739  -0.39425392    1.7578606    1.3636067 
   1.1733793  0.048808011   -0.3960284    1.7596289    1.3636005 
   1.1738078  0.048533434   -0.3967296    1.7602715    1.3635419 
    1.170038  0.049841007  -0.39112748    1.7546182    1.3634907 
   1.1705715  0.048720769  -0.39199602    1.7554183    1.3634223 
   1.1733267  0.047614159  -0.39622034    1.7595501    1.3633297 
   1.1703572  0.051207072  -0.39183993    1.7550969     1.363257 
Loop time of 1.276 on 8 procs for 5000 steps with 4000 atoms

Performance: 677114.252 tau/day, 3918.485 timesteps/s
52.3% CPU use with 8 MPI tasks x no OpenMP threads

MPI task timing breakdown:
Section |  min time  |  avg time  |  max time  |%varavg| %total
---------------------------------------------------------------
Pair    | 0.20173    | 0.23034    | 0.26123    |   3.9 | 18.05
Neigh   | 0.06218    | 0.067334   | 0.071372   |   1.2 |  5.28
Comm    | 0.87568    | 0.92022    | 0.95236    |   2.7 | 72.12
Output  | 0.0057971  | 0.0090766  | 0.015337   |   2.9 |  0.71
Modify  | 0.037978   | 0.04246    | 0.051625   |   2.4 |  3.33
Other   |            | 0.00657    |            |       |  0.51

Nlocal:    500 ave 543 max 454 min
Histogram: 1 0 1 1 1 0 2 0 1 1
Nghost:    619 ave 672 max 579 min
Histogram: 3 1 0 0 0 1 1 0 1 1
Neighs:    1962.12 ave 2335 max 1716 min
Histogram: 1 2 1 0 2 0 0 1 0 1

Total # of neighbors = 15697
Ave neighs/atom = 3.92425
Neighbor list builds = 250
Dangerous builds not checked
Total wall time: 0:00:01
