LAMMPS (11 Aug 2017)
# 3d Lennard-Jones melt

units		lj
atom_style	atomic
boundary p p p

variable	xx equal ${size}
variable	xx equal 10
variable	yy equal ${size}
variable	yy equal 10
variable	zz equal ${size}
variable	zz equal 10


lattice		fcc ${rho}
lattice		fcc 0.326800
Lattice spacing in x,y,z = 2.30458 2.30458 2.30458
region		box block 0 ${xx} 0 ${yy} 0 ${zz}
region		box block 0 10 0 ${yy} 0 ${zz}
region		box block 0 10 0 10 0 ${zz}
region		box block 0 10 0 10 0 10
create_box	1 box
Created orthogonal box = (0 0 0) to (23.0458 23.0458 23.0458)
  2 by 2 by 2 MPI processor grid
create_atoms	1 box
Created 4000 atoms
mass		1 1.0 #39.948

velocity	all create ${T} 1 loop geom dist uniform#create temp seed
velocity	all create 0.500000 1 loop geom dist uniform
timestep    ${dt}
timestep    0.002000

pair_style	lj/cut 3.0
pair_coeff	1 1 1.0 1.0 3.0

neighbor	0.3 bin
neigh_modify	delay 0 every 20 check no

fix	1 all nve

thermo ${Dump}
thermo 50

thermo_style custom temp press pe ke etotal

#dump dump all custom ${Dump} dump.xyz id type x y z vx vy vz
run		${Run}
run		5000
Neighbor list info ...
  update every 20 steps, delay 0 steps, check no
  max neighbors/atom: 2000, page size: 100000
  master list distance cutoff = 3.3
  ghost atom cutoff = 3.3
  binsize = 1.65, bins = 14 14 14
  1 neighbor lists, perpetual/occasional/extra = 1 0 0
  (1) pair lj/cut, perpetual
      attributes: half, newton on
      pair build: half/bin/atomonly/newton
      stencil: half/bin/3d/newton
      bin: standard
Per MPI rank memory allocation (min/avg/max) = 2.608 | 2.608 | 2.608 Mbytes
Temp Press PotEng KinEng TotEng 
         0.5  -0.69827791   -1.3874517    0.7498125  -0.63763924 
  0.54158047  -0.71002511   -1.4471017   0.81216761  -0.63493405 
  0.67627813  -0.67545495   -1.6400887    1.0141636  -0.62592511 
  0.73060033  -0.15594208   -1.7179157    1.0956265  -0.62228913 
  0.84360862  0.019288109    -1.886397    1.2650966  -0.62130046 
  0.92160564  0.028092287   -2.0030467    1.3820629  -0.62098387 
   0.9645022  0.023785341   -2.0673028    1.4463916  -0.62091122 
  0.99248289  0.023176326    -2.109498    1.4883521  -0.62114581 
   1.0069741  0.041054659   -2.1314336    1.5100835  -0.62135009 
   1.0186758  0.042956583   -2.1492982    1.5276318  -0.62166644 
   1.0340808  0.026044689   -2.1725337    1.5507335  -0.62180025 
    1.030817  0.060398882   -2.1677188    1.5458389  -0.62187981 
   1.0519298  0.014089881   -2.1998768    1.5775003  -0.62237658 
   1.0581476  0.027069083   -2.2095336    1.5868247  -0.62270897 
   1.0513669  0.070567024   -2.1994278    1.5766561  -0.62277171 
   1.0656534  0.040868825   -2.2209763    1.5980804  -0.62289583 
   1.0665798  0.054146067   -2.2225955    1.5994698  -0.62312575 
   1.0740946  0.040995659   -2.2341566    1.6107391   -0.6234175 
   1.0755739  0.050650162   -2.2366778    1.6129575  -0.62372025 
   1.0907343   0.04101746   -2.2597722    1.6356924   -0.6240798 
   1.1006181  0.043058744   -2.2745477    1.6505144  -0.62403327 
   1.0972058  0.070317253   -2.2695215    1.6453972  -0.62412428 
   1.0939052  0.079627279   -2.2647508    1.6404476  -0.62430323 
   1.1008283   0.06636219   -2.2754277    1.6508296  -0.62459813 
    1.106699  0.064793554    -2.284447    1.6596336  -0.62481341 
   1.1070662  0.074299211   -2.2851679    1.6601842  -0.62498372 
   1.1136162  0.068462284    -2.295167    1.6700066  -0.62516037 
   1.1163322  0.079806542   -2.2992424    1.6740797  -0.62516271 
   1.1058337   0.11011124   -2.2835241    1.6583359  -0.62518815 
   1.1226529  0.083761976   -2.3088064    1.6835583  -0.62524814 
   1.1260401   0.09332518   -2.3140623    1.6886379  -0.62542435 
   1.1245691   0.10644717   -2.3119655     1.686432  -0.62553351 
   1.1447585  0.064663183   -2.3424494    1.7167085  -0.62574091 
   1.1403934  0.095686487   -2.3359411    1.7101625  -0.62577865 
   1.1355958    0.1151674   -2.3290588    1.7029679  -0.62609088 
   1.1426445  0.099492122   -2.3398354    1.7135383  -0.62629715 
   1.1438372  0.087275835   -2.3415626    1.7153269  -0.62623566 
   1.1320772   0.10537453   -2.3241812    1.6976912  -0.62649002 
    1.147586  0.051255486   -2.3475179    1.7209486  -0.62656922 
   1.1407745  0.079241299   -2.3372747     1.710734  -0.62654065 
   1.1257403   0.12209563   -2.3146568    1.6881884  -0.62646845 
   1.1446675  0.077112865    -2.343044     1.716572  -0.62647204 
   1.1418848  0.086197385   -2.3387316     1.712399  -0.62633263 
   1.1488447  0.067939185   -2.3492771    1.7228362  -0.62644097 
   1.1463568  0.092486549    -2.345634    1.7191053  -0.62652869 
   1.1466392  0.095364037   -2.3462096    1.7195288  -0.62668078 
   1.1415232  0.099131942   -2.3385446    1.7118567  -0.62668794 
   1.1446155  0.095982578   -2.3433905     1.716494  -0.62689652 
   1.1402396   0.10819706   -2.3368065    1.7099318  -0.62687472 
   1.1444295   0.10325874   -2.3430841    1.7162152  -0.62686889 
   1.1431976   0.11112563   -2.3414408    1.7143677  -0.62707308 
   1.1494033   0.10996871   -2.3508447    1.7236739   -0.6271708 
   1.1607497  0.081332053   -2.3677217    1.7406892  -0.62703249 
   1.1445338   0.11400898     -2.34354    1.7163716  -0.62716844 
   1.1504431  0.085901626   -2.3522342    1.7252332  -0.62700102 
   1.1422947  0.092480542   -2.3401475    1.7130136  -0.62713383 
   1.1515675   0.06222435   -2.3540698    1.7269194  -0.62715038 
   1.1452302  0.087013082   -2.3445777    1.7174159  -0.62716184 
   1.1532824  0.079330958   -2.3569231    1.7294911  -0.62743194 
   1.1467397   0.10219831   -2.3470039    1.7196796  -0.62732429 
   1.1482619   0.10326773   -2.3493216    1.7219622  -0.62735945 
   1.1584082  0.074637718   -2.3646552    1.7371779  -0.62747733 
   1.1506606  0.098659286   -2.3529316    1.7255594  -0.62737222 
   1.1538059   0.09287097   -2.3574855    1.7302762  -0.62720931 
   1.1601894  0.057769429    -2.366911     1.739849  -0.62706202 
   1.1473041   0.08956816   -2.3479178    1.7205259  -0.62739189 
    1.151226  0.094237959   -2.3539141    1.7264072  -0.62750687 
   1.1570724  0.081725176   -2.3625458    1.7351747  -0.62737112 
   1.1556468  0.097924522    -2.360697    1.7330368   -0.6276602 
   1.1537981   0.12583934   -2.3579597    1.7302644  -0.62769525 
   1.1649271  0.089188874   -2.3747632    1.7469538   -0.6278094 
   1.1625625  0.081404384    -2.371157    1.7434079   -0.6277491 
   1.1609001  0.087992883   -2.3687401    1.7409148  -0.62782523 
   1.1465321   0.12986493   -2.3473082    1.7193681  -0.62794003 
   1.1602357   0.10246327   -2.3676813    1.7399184  -0.62776288 
   1.1532098   0.11499138   -2.3572763    1.7293822   -0.6278941 
   1.1571694  0.096384131   -2.3633473    1.7353201  -0.62802724 
   1.1587348  0.085946351   -2.3656471    1.7376676  -0.62797952 
    1.154031   0.10667274   -2.3585343    1.7306138  -0.62792053 
   1.1509128   0.11384612   -2.3537921    1.7259376  -0.62785448 
   1.1578689  0.092566529   -2.3643794    1.7363691  -0.62801031 
   1.1554087   0.10201269   -2.3606849    1.7326797  -0.62800518 
   1.1477631   0.13980225    -2.349067    1.7212142  -0.62785277 
    1.159532  0.093840294   -2.3669125    1.7388632   -0.6280493 
   1.1605627  0.065440258   -2.3683713    1.7404089  -0.62796245 
   1.1563726  0.068151995   -2.3623426    1.7341253  -0.62821727 
   1.1561103  0.081847604    -2.362158    1.7337319  -0.62842615 
   1.1518932   0.10856268   -2.3555509    1.7274078  -0.62814312 
   1.1596609   0.10089189   -2.3675347    1.7390565  -0.62847813 
   1.1611245   0.11255648    -2.369835    1.7412513  -0.62858371 
   1.1520313   0.11300531   -2.3561435     1.727615  -0.62852849 
   1.1653744  0.068607725   -2.3760748    1.7476245  -0.62845022 
   1.1470724   0.12834369   -2.3487416    1.7201785  -0.62856308 
   1.1604052  0.094866534   -2.3686195    1.7401726  -0.62844687 
   1.1581913  0.083932213   -2.3651576    1.7368526  -0.62830493 
   1.1643627  0.071534184   -2.3744656    1.7461074  -0.62835824 
   1.1598876  0.079189589   -2.3678672    1.7393964  -0.62847078 
   1.1530752   0.10203973   -2.3576965    1.7291803  -0.62851618 
   1.1668916  0.073159499   -2.3784817    1.7498999  -0.62858179 
   1.1578862  0.099389787   -2.3649996    1.7363951  -0.62860446 
   1.1699707  0.079662905   -2.3830909    1.7545172  -0.62857363 
Loop time of 7.04793 on 8 procs for 5000 steps with 4000 atoms

Performance: 122589.186 tau/day, 709.428 timesteps/s
45.3% CPU use with 8 MPI tasks x no OpenMP threads

MPI task timing breakdown:
Section |  min time  |  avg time  |  max time  |%varavg| %total
---------------------------------------------------------------
Pair    | 1.2789     | 1.4976     | 1.6595     |   9.9 | 21.25
Neigh   | 0.19344    | 0.21569    | 0.25377    |   3.8 |  3.06
Comm    | 5.0775     | 5.183      | 5.3658     |   4.8 | 73.54
Output  | 0.035711   | 0.095427   | 0.1575     |  18.2 |  1.35
Modify  | 0.040471   | 0.045041   | 0.051307   |   1.6 |  0.64
Other   |            | 0.0112     |            |       |  0.16

Nlocal:    500 ave 528 max 465 min
Histogram: 1 0 1 0 1 1 1 1 1 1
Nghost:    1428.5 ave 1465 max 1392 min
Histogram: 1 1 0 1 0 2 1 1 0 1
Neighs:    12809.8 ave 13825 max 10979 min
Histogram: 1 0 0 0 0 2 0 3 1 1

Total # of neighbors = 102478
Ave neighs/atom = 25.6195
Neighbor list builds = 250
Dangerous builds not checked
Total wall time: 0:00:07
