LAMMPS data file via write_data, version 11 Aug 2017, timestep = 4000

4096 atoms
1 atom types

0.0000000000000000e+00 5.6482399999999998e+01 xlo xhi
0.0000000000000000e+00 5.6482399999999998e+01 ylo yhi
0.0000000000000000e+00 5.6482399999999998e+01 zlo zhi

Masses

1 28.06

Atoms # atomic

2429 1 8.3019193250220769e-01 1.9024096462392169e+01 6.3525427991329879e+00 1 0 0
585 1 1.1688685193190659e+01 5.9082622124661848e+00 2.5750186119016213e+01 0 0 0
2498 1 1.7767723577557010e+01 1.3914378955893490e+01 2.2007432276719673e+01 0 0 0
2275 1 2.2909490113423118e+01 1.7933985373699652e+01 1.3059633470172718e+01 0 0 0
2405 1 2.6045398887875937e+01 9.2046859692923366e+00 1.0325404342308826e+01 0 0 0
2304 1 3.0798423021672652e+00 2.5289043289567658e+01 4.7244930350453140e-01 1 0 0
945 1 2.0686752453103701e+01 3.9587446088253917e+00 8.6427743003158053e+00 0 0 1
8 1 1.6722596242959064e+01 1.0420163188243577e-01 1.7927480900471338e+01 0 0 0
568 1 2.2072198811887265e+01 8.1020656756451448e+00 2.8138381144715979e+01 0 0 0
1355 1 9.2500034336351877e+00 2.6497341236001347e+01 1.0902622654364208e+01 0 0 0
467 1 2.1685218473917292e+01 1.7690363178210784e+01 2.4132975236882860e+01 0 0 0
2370 1 2.4061006157098277e+01 9.2039812128282996e+00 1.7424966449816058e+01 0 0 0
13 1 2.0381433338027893e+01 5.8981394457244134e+00 1.3269255749959491e+01 0 0 0
14 1 1.8974651503865687e+01 8.2026895433656588e-01 1.9804359068377963e+01 0 0 0
420 1 2.3931878729904788e+01 1.8267413126365909e+01 2.1685292925321558e+01 0 0 0
976 1 2.3027519952558126e+01 1.0012792217817971e+01 1.3785277523795491e+01 0 0 1
492 1 1.4826421403833159e+01 1.0049062880137894e+01 2.2542335994346868e+01 0 0 0
18 1 2.6170850894709098e+01 6.7030508866225746e+00 1.0083601198405747e+01 0 0 0
11 1 1.9192182055909679e+01 2.5641572209305381e+00 1.1809866603741801e+01 0 0 0
207 1 3.0081290005683621e+00 2.7255773413495881e+01 3.7284366373131781e+00 0 0 0
21 1 2.3262993422875649e+01 5.3947894695097940e+00 1.2248064400446498e+01 0 0 0
22 1 1.9026229275581965e+01 2.0611906728370887e+01 1.5085010012651257e+01 0 0 0
1147 1 1.6937429634028202e+01 1.1039184389513544e+01 1.3314095007884481e+01 0 1 0
352 1 2.6996560262477026e+01 1.7137612193438581e+01 2.2840680016385647e+01 0 0 0
455 1 1.8429620688369297e+01 7.9165147761422165e+00 2.4243976818126914e+01 0 0 0
2493 1 2.2136742168911073e+01 4.6504526355788620e+00 1.8606203162064112e+01 1 0 0
305 1 1.9720914523137104e+01 1.6978986031600712e+01 2.5346032821055168e+01 0 0 0
497 1 1.5048772139167127e+01 2.5777660029210566e+01 1.3008074843110506e+01 0 0 0
2760 1 2.3578060444837547e+01 1.6347245532013165e+01 2.8229302536590577e+01 0 0 0
402 1 1.7758187216996063e+01 6.0138705166250386e+00 2.2440553178796048e+01 0 0 0
2785 1 2.4997576123055644e+01 1.2909144796763171e+01 2.4396834211393852e+01 0 0 0
343 1 2.7847416493602712e+01 6.1157047257606081e+00 2.1153141128977371e+01 0 0 0
398 1 1.5304919760166809e+01 7.9223929509620437e+00 2.3009572734659333e+01 0 0 0
462 1 2.6976678929632136e+01 1.7912400089328923e+01 1.9857177036216772e+01 0 0 0
400 1 2.0329614051847198e+01 1.2970899542347555e+01 2.7522716497136066e+01 0 0 0
188 1 2.6976225553770888e+01 9.0470526302782410e+00 1.4806095923349712e+01 0 0 0
2038 1 2.2669360848401460e+01 5.3722227896278527e+00 4.8763187530772036e+00 0 1 1
38 1 2.4111542585254188e+01 1.3293994145359937e+01 1.6239665651467924e+01 0 0 0
39 1 2.2943845416074300e+01 6.5322290882155576e+00 1.4820661525396183e+01 0 0 0
424 1 2.3856146894418249e+01 1.6595413654104210e+01 2.3736752124592790e+01 0 0 0
41 1 2.2768759156437383e+01 2.0170544131554404e+00 1.0627485677900401e+01 0 0 0
983 1 2.8055135329981024e+01 1.1388211666273029e-01 3.4902723430402705e+00 0 0 1
2257 1 2.4684621604709950e+01 1.3480548571867034e+01 1.3526890048168818e+01 0 0 0
1150 1 2.1458611166265783e+01 2.1126667475031189e+00 2.2968972696093935e+01 0 1 0
89 1 2.2806724698967102e+01 2.1251350329271382e+01 1.4311002596010903e+01 0 0 0
58 1 2.6020914689900849e+01 6.8661954243049061e+00 1.7965204559494662e+01 0 0 0
1518 1 1.9822861568424237e+01 5.5578980940730425e+00 2.4384446473929152e+01 0 1 0
1530 1 2.5209064037841681e+01 8.3329504337255127e+00 2.5582733767879542e+01 0 1 0
588 1 1.4096295049203368e+01 1.2645336153802731e+01 2.5111646390725483e+01 0 0 0
2249 1 2.7224220086432293e+01 1.1297307371419960e+01 9.2966307323404607e+00 0 0 0
257 1 1.9853570711524690e-01 4.0360251315392848e+00 1.6824101397087110e+00 0 0 0
519 1 1.0451882420952273e+01 5.9817293449154265e+00 2.8177017372986576e+01 0 0 0
134 1 1.9417478370699484e+01 6.3132979091314176e+00 1.6005948323509568e+01 0 0 0
54 1 2.0247746591323715e+01 2.8664541455545738e+00 1.9256591197931783e+01 0 0 0
2775 1 2.7490637874069638e+01 1.4961447356974853e+00 2.4165755046937104e+01 0 0 0
2301 1 2.1950948990211265e+00 2.5913996406477306e+01 5.9201170406814123e+00 1 0 0
626 1 1.4471798008317794e+01 2.7947191730499615e+01 2.3547132740453996e+01 0 0 0
404 1 2.4052776789301980e+01 4.7220454354983064e+00 2.3962589742584846e+01 0 0 0
369 1 2.5475836230386864e+01 1.6503448546798033e+01 1.6747940979385724e+01 0 0 0
920 1 2.0942125460332871e+01 8.6835589377245725e-01 1.2198282596478563e+01 0 0 1
409 1 1.5893506103824045e+01 1.4601415819440316e+01 2.3982168907734348e+01 0 0 0
1965 1 1.2906543499116513e+01 2.6367348400289149e+01 1.4064846701432455e+01 0 0 1
612 1 1.2357000354805288e+01 2.6352131599691955e+01 2.3300822076914049e+01 0 0 0
439 1 1.6670538566324797e+01 1.2196922669150036e+01 2.8103527979598585e+01 0 0 0
597 1 2.1799223738131452e+01 4.0559099522311213e+00 2.4149260337537335e+01 0 0 0
2271 1 2.2979065248235457e+01 1.6112954854987173e+01 1.9317589017778271e+01 1 0 0
262 1 1.8205662011356544e+01 4.4736915780331135e+00 1.9567045740930549e+01 0 0 0
3354 1 1.7047238662234832e+01 7.7015713379028297e+00 2.0899152399591369e+01 1 0 0
1387 1 1.9661398997106424e+01 8.7016988056808930e-01 1.6505988261912783e+01 0 1 0
564 1 2.5579500266653383e+01 1.6011221670450333e+01 1.9207583186733384e+01 0 0 0
2600 1 2.2472306022168937e+01 1.2007584408488931e+01 2.7856597426823097e+01 0 0 0
2054 1 2.5801111066208961e+01 2.3890481723990900e+00 1.8568864179040144e+01 0 0 0
52 1 2.5329053062449425e+01 2.7241979188831613e+00 1.1714932255391412e+01 0 0 0
74 1 1.6673584603753675e+01 2.1608869138039150e+01 1.4301163592782094e+01 0 0 0
2344 1 2.7584349567602739e+01 1.5097919058557949e+01 1.5536948872105755e+01 0 0 0
1546 1 1.0725092139252448e+01 2.6550866443273840e+01 2.5005939475806485e+01 0 0 0
27 1 2.6902432816260362e+01 2.4787261377918526e+00 6.2332798787668091e+00 0 0 0
2492 1 1.3042828199600677e+01 1.8549547952625520e-01 2.1868603158716137e+01 1 0 0
79 1 2.3659067718569567e+01 1.0093002879822558e+01 2.0048873217024401e+01 0 0 0
80 1 1.7485089886823104e+01 1.9859329500183080e+01 1.1982021024400847e+01 0 0 0
287 1 2.6545264591256256e+01 1.4889260794497211e+01 2.2965375825429192e+01 0 0 0
479 1 1.6144651849225546e+01 7.6443858175089296e+00 2.5440992085178912e+01 0 0 0
2557 1 6.5985598304083357e+00 2.7624864478246149e+01 1.3170347699019091e+01 1 0 0
731 1 1.6017600878554148e+01 9.2424243818289593e+00 2.8169856525512920e+01 0 0 0
2050 1 2.6345945427513197e+01 2.0380563230095476e+00 3.5352582036298927e+00 0 0 0
617 1 1.3425849518132450e+01 1.3853069632148902e+01 2.6983185539191023e+01 0 0 0
87 1 2.3889190294917238e+01 4.9287461326330115e+00 2.0569112074519147e+01 0 0 0
545 1 2.8402616633707944e-01 2.6106169138394133e+01 1.0984353309393034e+01 0 0 0
1035 1 4.5444173665662975e+00 2.6732540725526032e+01 2.2051668686562991e+00 0 0 0
950 1 2.4901105762901903e+01 4.2406505287391560e+00 4.1595016812873933e+00 0 0 1
82 1 7.3237832532075835e+00 2.7264681864696730e+01 5.7961274017013897e+00 0 0 0
92 1 1.6624174731430447e+01 2.7849896593303576e+01 5.1406740906367521e+00 0 0 0
93 1 2.5503314012662941e+01 2.8774876961982671e-01 7.3396667543164327e+00 0 0 0
1138 1 2.2010754757567810e+01 1.2130949515211586e+01 1.3757701553912490e+01 0 1 0
95 1 1.9855950332575482e+01 1.2756886268608978e+01 1.4871547420769556e+01 0 0 0
96 1 2.4675949325920907e+01 1.9288474204184269e+01 1.3848506529655785e+01 0 0 0
541 1 2.7695705434848829e+01 1.0798280971936862e+01 2.3094073801418322e+01 0 0 0
546 1 2.0153755453809225e+01 6.3218208067769801e+00 1.9880597080443504e+01 0 0 0
2367 1 1.5002617077325262e+01 8.2706289567647617e-01 1.9663199550858675e+01 1 0 0
417 1 1.7148474966311959e+01 6.7783526069673519e+00 1.4885388518174807e+01 0 0 0
533 1 1.9512254395053681e+01 2.1755925707597017e+00 2.7013205709902905e+01 0 0 0
2395 1 3.2973344277692864e+00 2.4087727238121776e+01 8.8013011888811068e+00 1 0 0
1038 1 1.1113068374977223e+01 2.6049643946126345e+01 9.2652396064381506e+00 0 0 0
359 1 4.0399862980094357e+00 2.4793314561143070e+01 1.3464847189645209e+01 0 0 0
598 1 2.7360556941911518e+01 1.2724791877720277e+01 2.0202244024942985e+01 0 0 0
347 1 2.4373563875642343e+01 2.2144241916380176e+00 2.0651858700006844e+01 0 0 0
599 1 1.7214512383423564e+01 1.2562620508453873e-01 2.5835614649984233e+01 0 0 0
325 1 2.0975559074598323e+01 8.5449448802811145e-01 9.5486539646635755e+00 0 0 0
620 1 9.1121230361135535e+00 2.5779926650054485e+01 2.3598698928647615e+01 0 0 0
1422 1 1.2666371488632263e+01 2.7381788041476721e+01 2.0620418937492889e+01 0 0 0
111 1 1.3192457734600794e+01 2.7693899464188416e+01 8.8618377890069340e+00 0 0 0
622 1 1.4454534607423351e+01 2.6472408318777983e+01 2.7978677586537739e+01 0 0 0
2339 1 2.5976689274065770e+01 1.7185231062967649e+01 2.4990333697921862e+01 0 0 0
2430 1 1.9283374528022252e+00 2.5067006800052461e+01 2.3655291382299954e+00 1 0 0
115 1 2.2208628222468683e+01 2.0071445894641645e+01 1.2116470515891814e+01 0 0 0
1396 1 1.3539254310263827e+01 3.9136599749179006e+00 1.7393136637830874e+01 0 1 0
576 1 1.9062730317762036e+01 1.1736584953341433e+01 2.3834454650726400e+01 0 0 0
23 1 1.6728724677999224e+01 5.1203281130242333e+00 1.7683391124760703e+01 0 0 0
119 1 9.9722534315259086e+00 2.6920468273531377e+01 6.7327244958011789e+00 0 0 0
2525 1 2.3750972737114452e+01 9.3573425610247583e+00 2.2537829615236941e+01 1 0 0
241 1 7.7132422687441400e+00 2.5417046103995219e+01 7.4769720684195260e+00 0 0 0
361 1 4.3233864717681900e+00 2.7193838134076760e+01 1.2713719226767136e+01 0 0 0
123 1 2.5088919595368093e+01 7.3419867206636793e+00 1.5766973238620590e+01 0 0 0
556 1 2.1579391667082501e+01 9.4233381966308993e+00 2.6267213970361169e+01 0 0 0
534 1 1.4068031579022453e+01 2.3394865319167155e+00 2.3205461824520977e+01 0 0 0
996 1 2.8166861266803376e+00 2.1344810952622272e+01 1.7683942708023890e+00 0 0 1
3045 1 1.5586389078381089e+01 2.5075826161509891e+01 9.1981289599869953e+00 0 0 1
2149 1 2.5258821150065270e+01 1.5674404979712371e+01 4.6965855137133761e-01 0 0 0
368 1 2.6468098645480098e+00 2.3731416816476194e+01 1.2051238237484796e+01 0 0 0
2524 1 1.5030139401311306e+01 1.0472966676347452e+01 1.7320283161426836e+01 1 0 0
593 1 2.5231610797935954e+01 1.1124343173139325e+01 1.6783971668023590e+01 0 0 0
2397 1 1.6736642926187400e+01 1.0071036180947637e+01 1.9212299615649076e+01 1 0 0
538 1 2.1788391266317213e+01 1.9126977045519393e+01 2.1792781027725422e+01 0 0 0
373 1 1.7553967865020216e+01 1.6707605542108219e+01 1.5847029155840181e+01 0 0 0
340 1 2.0455776709543322e+01 1.7294127274002467e+01 1.2367200576354048e+01 0 0 0
536 1 2.7708346478511228e+01 7.7556794627393026e+00 2.4862469384450112e+01 0 0 0
3323 1 1.0040758926104560e+01 2.7751411106093737e+01 1.4578405610890526e+01 1 0 0
294 1 1.6944577658197780e+01 4.3575476633167822e+00 1.5383010766371521e+01 0 0 0
103 1 1.6868471946502044e+01 2.3988509499214885e+01 1.1072598512029110e+01 0 0 0
140 1 2.0636636374928763e+01 1.0882204975557887e+01 1.7161562210605855e+01 0 0 0
141 1 1.8619030981666128e+01 5.3968680479118749e+00 1.1419774950806376e+01 0 0 0
2438 1 2.6023080538954449e+01 7.8894047938917522e+00 2.1382248491718094e+01 0 0 0
143 1 2.1926449835027150e+01 9.2327339062352181e+00 1.6228589141842313e+01 0 0 0
144 1 1.9164354108692095e+01 9.4464979976113472e+00 1.3695334673555420e+01 0 0 0
84 1 2.7076834086032090e+01 8.9753573120501819e+00 1.2421909047881739e+01 0 0 0
2793 1 1.7368316705590669e+01 1.3577935135373742e+00 2.7678315121176968e+01 0 0 0
147 1 1.9458735117973397e+01 1.2942947804516395e+01 1.8347149191467981e+01 0 0 0
148 1 2.0640870196011132e+01 6.3716412911291220e+00 9.8281390512958264e+00 0 0 0
149 1 2.1354621610060235e+01 8.4539446940778333e+00 1.3390541383437933e+01 0 0 0
150 1 1.7792028184009119e+01 7.6082207601148619e+00 1.2754151430535082e+01 0 0 0
203 1 1.7082532156045101e+01 2.3511647923741239e+00 2.0412838295585122e+01 0 0 0
152 1 2.1487371602400639e+01 3.8783326846185853e+00 1.1142834906016954e+01 0 0 0
366 1 2.2646999453553981e+01 1.3712036314850156e+01 1.8925274607744090e+01 0 0 0
1401 1 2.7662436657529582e+01 2.5859274642878964e+00 2.1675583987033651e+01 0 1 0
2670 1 2.7462498451899190e+01 1.1358914265167590e+01 1.7883764840520126e+01 0 0 0
2303 1 5.2962644549989983e+00 2.5040870218005296e+01 6.8405238248659010e+00 1 0 0
2558 1 1.5006196119544243e-01 2.4631927461435925e+01 1.2728608298324438e+01 1 0 0
394 1 1.6207308776581577e+01 5.3177015174982167e-01 2.3722962984188154e+01 0 0 0
3170 1 2.7407090528039333e+01 4.4769787129375596e+00 1.1693414314797668e+01 0 1 0
387 1 1.5244981526608827e+01 4.0762841718980578e+00 1.9223600033335266e+01 0 0 0
2504 1 2.7992639732958292e+01 1.3065698144101184e+01 1.4254876636674682e+01 0 0 0
407 1 2.2175050477493539e+01 1.8176040471756088e+00 2.0786342833501674e+01 0 0 0
163 1 2.1546938699314367e+01 8.5354175666829786e+00 2.2557006230569119e+01 0 0 0
427 1 1.5294142961116767e+01 1.2974555850047105e+00 1.4571888682305431e+01 0 0 0
355 1 5.5796862068701945e+00 2.6836838955651352e+01 1.0429161410924367e+01 0 0 0
683 1 1.6963578439755761e+01 2.5575059261085067e+00 2.3012488036525458e+01 0 0 0
167 1 2.4213721172565062e+01 3.7453594999102640e+00 1.3703112715046407e+01 0 0 0
472 1 2.5765788308985694e+01 4.3527698635046557e+00 2.2008649007933425e+01 0 0 0
169 1 1.9107663302201466e+01 3.0466413142998081e+00 1.5400714556756242e+01 0 0 0
170 1 1.4031378812921888e+01 5.3398860122763132e+00 2.2610605952705860e+01 0 0 0
171 1 2.4066378343217107e+01 5.8751923537964208e+00 9.6424284402843750e+00 0 0 0
460 1 1.9564241623407256e+01 4.5426028663249634e+00 1.7249868996316298e+01 0 0 0
173 1 2.2801553547895171e+01 3.2048753402603571e+00 1.6620298843932776e+01 0 0 0
174 1 2.4690945170291805e+01 1.2659823824950591e+01 1.9287421592609512e+01 0 0 0
126 1 2.6942775975325084e+01 1.6768394376864080e+01 1.0473036856619318e+01 0 0 0
113 1 1.6692055627971644e+01 2.7491444309029202e+01 7.1590982237421494e+00 0 0 0
371 1 2.4274474014998972e+01 6.6366957081925593e+00 2.8104937042366696e+01 0 0 0
959 1 2.1764146555075964e+01 7.2729258600182076e+00 7.3137412820847936e-01 0 0 1
211 1 2.4573859956481591e+01 1.6026098951345144e+01 1.2242822715258853e+01 0 0 0
180 1 2.1326628850696459e+01 1.4585853572084744e+00 1.8006843973019382e+01 0 0 0
45 1 1.7724772908675082e+01 7.3624742327060551e+00 1.8364919406470033e+01 0 0 0
182 1 1.6642975474935081e+01 1.4926711419488703e+01 1.5141958689172959e+01 0 0 0
2180 1 2.7914019524441645e+01 5.4355315628510077e+00 1.8739881848144908e+01 0 0 0
184 1 2.3811785583352751e+01 9.2357804413210989e+00 1.0916151561995276e+01 0 0 0
185 1 2.1160163680402203e+01 1.4918236674897587e+01 1.3020065456693551e+01 0 0 0
524 1 1.2714528144991270e+01 1.4841843587143217e+00 1.6692444293116708e+01 0 0 0
2628 1 2.2631399076070721e+01 1.5480899920503738e+01 2.5573168344943994e+01 0 0 0
302 1 1.2804099301553073e+01 7.1402859599086215e+00 2.3513141722547836e+01 0 0 0
1055 1 1.7527345594584979e+01 1.1602419697315362e+01 1.7142134457993837e+01 0 0 0
516 1 2.2382403866549833e+01 7.9643520760078195e+00 1.9420411670257213e+01 0 0 0
491 1 1.9621386912607250e+01 1.8280899305635572e+01 2.1858140724919970e+01 0 0 0
2289 1 3.3029039498953936e+00 2.5657681452829433e+01 1.5686061838052154e+01 1 0 0
935 1 2.5660435762808799e+01 5.1443401637833510e+00 6.4281024980283679e+00 0 0 1
461 1 2.0662463608394503e+01 1.9615823006298001e+01 1.7526002287188277e+01 0 0 0
627 1 2.5708332561536647e+01 2.8206918353149039e+01 2.7427547884357114e+01 0 0 0
449 1 1.6473428424748043e+01 1.1158497107775410e+01 2.1164393721546475e+01 0 0 0
197 1 2.7106620358186866e+01 8.9986320966310895e+00 1.7992518150794542e+01 0 0 0
487 1 1.8946921908387960e+01 1.4204164926153998e+01 2.6123904915779882e+01 0 0 0
199 1 2.2828015811938336e+01 1.6214584016906082e+00 1.3797169400347556e+01 0 0 0
426 1 1.2083298657384459e+01 9.4737861387653819e+00 2.3382716543356167e+01 0 0 0
2505 1 2.5761707639152874e+01 1.1216586499415104e+01 2.7574793814183487e+01 0 0 0
547 1 1.0766079208583903e+01 9.4199482648718078e+00 2.7196541255417614e+01 0 0 0
1145 1 1.9227194102907728e+01 2.2755788615054429e+00 9.4332572534635961e+00 0 1 0
72 1 5.8231335512020550e+00 2.6114771817254351e+01 4.3024987071723997e+00 0 0 0
205 1 2.6834381478291608e+01 3.1593715838526837e+00 9.3659915197475794e+00 0 0 0
2691 1 1.7328639503363256e+01 4.6874825249209575e+00 2.4617201590822361e+01 0 0 0
1030 1 6.6370806356761136e-01 2.2684960650473670e+01 1.3047834765789299e+00 0 0 0
208 1 1.8817347840408875e+01 1.7115553655190112e+01 1.7949971211087750e+01 0 0 0
1262 1 1.5567222603935148e+01 1.9502877476101230e+00 1.6824527742199891e+01 0 1 0
1151 1 2.2655626258687789e+01 3.0505216467746781e+00 5.6887489710138794e+00 0 1 0
356 1 4.0873389102712343e+00 2.6701218414599683e+01 8.0878192433081288e+00 0 0 0
212 1 2.2982707292032782e+01 1.5363635157688842e+01 1.4251108460155947e+01 0 0 0
213 1 2.5263039968839937e+01 1.0968111598196499e+01 1.4331185015575381e+01 0 0 0
249 1 1.3598737818720895e+01 2.6492774695087142e+01 6.7953863402553232e+00 0 0 0
342 1 1.1121893805930217e+01 2.5756273460915224e+01 1.3026288495322255e+01 0 0 0
216 1 1.3269187814556357e+01 2.2730828740070187e+01 1.1798726930498797e+01 0 0 0
217 1 2.6031790981655337e+01 5.1241727311635064e+00 1.5123683455225875e+01 0 0 0
71 1 2.6719728891161591e+01 1.3500804237881585e+01 8.8271144803904384e+00 0 0 0
219 1 2.1177346264941178e+01 1.9186365370091519e+01 1.5134046768678814e+01 0 0 0
375 1 2.6811288364263959e+01 1.1239136892648018e+01 2.5393720860013051e+01 0 0 0
367 1 2.0459297246595177e+01 1.3453549265598216e+01 2.0350132022951751e+01 0 0 0
125 1 2.2718972185092476e+01 1.5437881550774138e+01 3.4137288375569352e-01 0 0 0
486 1 1.0979203736938555e+01 2.4158782858299922e+01 2.2484156040173147e+01 0 0 0
577 1 1.0664916751356749e+01 8.0304760436794336e+00 2.5039257837596629e+01 0 0 0
565 1 1.5284397581418785e+01 1.3006155125288551e+01 2.2656238805269506e+01 0 0 0
1203 1 1.3908155238050583e+01 2.7283012009097895e+01 1.5947429251212561e+01 0 0 0
463 1 1.8855572918096495e+01 1.0909716867713966e+01 2.7444979814502815e+01 0 0 0
405 1 1.3884665214203620e+01 7.5217996872591542e+00 2.6135967697157941e+01 0 0 0
2490 1 1.4587711370316876e+01 1.4193182179181839e+01 2.0840660415761274e+01 1 0 0
1015 1 1.6242566601154643e+01 2.1727927407341117e+01 1.0577826472581535e+01 0 0 1
231 1 2.9266980293205060e+00 2.5725481095848014e+01 1.0363085163440170e+01 0 0 0
442 1 2.3318770465866358e+01 1.5292266794133527e+01 2.1696735762478585e+01 0 0 0
2629 1 2.6501858206589958e+01 3.5565233824155915e+00 2.4574391712449909e+01 0 0 0
4038 1 2.4761702979115952e+01 4.1312809482328907e+00 8.1923883764938950e+00 0 1 1
851 1 2.6014994671673300e+01 1.4467773658035631e+01 1.1319293576116085e+01 0 0 1
236 1 1.4200564993286399e+01 2.6867326948330330e+01 1.0678625288655514e+01 0 0 0
237 1 1.2676254808291027e+01 2.5120932777328537e+01 1.0857682404097087e+01 0 0 0
2209 1 2.6481026127504702e+01 1.0692252763244786e+01 2.1075886639431971e+01 0 0 0
239 1 2.5143959487008651e+01 4.0952592299892805e+00 1.7094022931344664e+01 0 0 0
3099 1 1.2712211402710478e+00 2.1313446983868602e+01 7.3886496347900623e+00 1 0 0
493 1 2.6612313005785435e+01 1.7037036109110712e+01 2.7693348692507925e+01 0 0 0
99 1 1.6985762872596522e+00 2.2754886059212172e+01 3.8115363915831932e+00 0 0 0
372 1 1.9765798688557375e+01 1.9600306174436863e+01 1.1456856121186307e+01 0 0 0
973 1 4.3461869830962074e+00 2.3298379427578901e+01 8.4018944558938813e-01 0 0 1
2994 1 2.6165280835161038e+01 6.2186506469083023e+00 1.2436872988505598e+01 0 0 1
440 1 2.3953153349493789e+01 1.0298866959816646e+01 2.6069687509452471e+01 0 0 0
151 1 1.5924760766039276e+01 4.6477215481411678e+00 2.1816228722404819e+01 0 0 0
390 1 7.6984422327466211e+00 2.6822881571977316e+01 1.5229586148529203e+01 0 0 0
456 1 4.1449119163720347e+00 2.7690311517466672e+01 1.6316398137535792e+01 0 0 0
363 1 1.3545130826252176e+01 1.0161852424513722e+01 2.5087111316598907e+01 0 0 0
3969 1 2.7845221072789588e+01 2.7527680461812874e+01 2.8652230256533934e-01 0 0 1
307 1 1.3019106820093386e+01 4.5099486526787071e+00 2.0273093991388667e+01 0 0 0
247 1 1.5581675011071322e+01 2.5487114382515784e+01 6.8144728154539962e+00 0 0 0
198 1 1.7842887893641077e+01 9.5132516051314084e+00 1.6082244631479671e+01 0 0 0
421 1 1.8771182090289166e+01 8.9977101686823246e+00 2.2026706526382828e+01 0 0 0
139 1 2.0937510776960039e+01 3.6452469993795074e+00 1.4191420614399872e+01 0 0 0
2689 1 2.2249412246888923e+01 4.6028065992723377e+00 2.8116462126262061e+01 0 0 0
3478 1 1.3480616999222248e+01 2.6921042757470612e+01 2.5803963906328949e+01 1 0 0
365 1 2.1276221277619204e+01 1.0836932959448454e+01 1.9300017523039372e+01 0 0 0
260 1 1.7206099221536881e+01 1.2535186979773956e+01 2.4712463809727613e+01 0 0 0
596 1 2.4297314507989604e+01 1.8715486907224047e+01 2.5937637974224096e+01 0 0 0
495 1 1.6128500654214665e+01 1.4507172744381299e+01 2.6568772366653647e+01 0 0 0
263 1 1.5914513404469306e+01 8.4231240705693029e+00 1.6318120501784172e+01 0 0 0
264 1 2.5032896719676316e+01 1.3893184216923415e+00 9.4596493132646664e+00 0 0 0
451 1 1.5954291853322244e+01 1.3098075893820502e+01 1.8886769763626187e+01 0 0 0
2637 1 2.7595806484389929e+01 1.9664623084418331e+01 2.2757967010340842e+01 0 0 0
476 1 2.1736081683113635e+01 1.2958076052035681e+01 1.6750406720261395e+01 0 0 0
268 1 2.1839556443371045e+01 5.8160923332079264e+00 2.1665147232661905e+01 0 0 0
445 1 2.7961196247214460e+01 4.8448537166337475e+00 6.1302694153373949e+00 0 0 0
505 1 1.2953213091212039e+01 1.0013292248366573e+01 2.7435596733435755e+01 0 0 0
2338 1 2.5670513475207528e+01 5.4767595459802045e+00 2.6031444327315363e+01 0 0 0
272 1 1.9450961726002745e+01 1.5157440092235101e+01 1.4914787199976406e+01 0 0 0
1157 1 1.6901681995493867e+00 2.2682586051274704e+01 9.9503150733252301e+00 0 0 0
274 1 1.9526283676958098e+01 3.6035756135310111e+00 2.2013092378695006e+01 0 0 0
953 1 1.7431928559735756e+01 1.2661673032277280e+01 1.5043956725717900e+01 0 0 1
2681 1 9.7429389467924699e-01 2.5983131559543502e+01 1.5134319459706921e+01 1 0 0
2466 1 2.4160166018284478e+01 3.5626965275710778e+00 2.6733597967459470e+01 0 0 0
378 1 2.6531714897059292e+01 1.3934618814524526e+01 1.7553764359779510e+01 0 0 0
279 1 1.8900815759441013e+01 7.3908746383851953e-01 2.2645933712763885e+01 0 0 0
181 1 2.2421988771820320e+01 2.5060089447558864e+00 7.9935077348002821e+00 0 0 0
621 1 2.4843780719730375e+01 1.3974568218562949e+01 2.7088798245516564e+01 0 0 0
282 1 2.2812697699456088e+01 1.3023931506766091e+01 2.5502672540509312e+01 0 0 0
357 1 2.6288093097165994e+00 2.3104778939012757e+01 6.5434945869062098e+00 0 0 0
529 1 1.7891803405117379e+01 4.2932972836348089e+00 2.6920721328607915e+01 0 0 0
285 1 2.0632824493737473e+01 1.3986997839201779e+01 2.4730006124517708e+01 0 0 0
1180 1 2.4133150568015672e+01 1.1943462344069308e+01 1.1514755904550302e+01 0 0 0
566 1 2.2484258403824608e+01 1.8588984319154601e+01 2.7411752895721186e+01 0 0 0
288 1 2.2231513897975596e+01 1.1308306222598620e+01 2.4056033310263427e+01 0 0 0
2521 1 1.6110042936987597e+01 1.6124846941665169e+01 2.1438009001698394e+01 1 0 0
661 1 1.5692865574170995e+01 3.4034157932753955e+00 2.7284958933076734e+01 0 0 0
291 1 1.7378824928680508e+01 1.7467125096003933e+01 2.3081000082587348e+01 0 0 0
292 1 1.9532500614994323e+01 1.5640572428642596e+01 2.2666076368071074e+01 0 0 0
573 1 2.3030608955459655e+01 6.3255321010944545e+00 2.5757123721564327e+01 0 0 0
458 1 1.7715867833598729e+01 1.5027669466898606e+01 1.9457292500008723e+01 0 0 0
295 1 1.9967054697399451e+01 8.8799692125751086e+00 1.9771713478363473e+01 0 0 0
296 1 1.9984285106038342e+01 1.5939349632849405e+01 2.0171712918730634e+01 0 0 0
306 1 1.7087181915923711e+01 1.6969806048991789e+01 2.5561858034812595e+01 0 0 0
298 1 2.5768555266746993e+01 1.9892960697371166e+01 2.1190400405875589e+01 0 0 0
299 1 1.8897994489807445e+01 1.1461577535800796e+01 2.1531121130155206e+01 0 0 0
300 1 2.6394044439554619e+01 1.1568955275303580e+01 1.2411035940238580e+01 0 0 0
435 1 1.9481899691915725e+01 9.8550213565972964e+00 2.5410620379548405e+01 0 0 0
408 1 2.1946544771907384e+01 2.3044145799066516e+00 2.6204410858612988e+01 0 0 0
183 1 1.4536926101021951e+01 1.4230165535336501e+00 2.5680654512525404e+01 0 0 0
81 1 2.2022664995404330e+01 7.5578352179624346e+00 1.1337838123574221e+01 0 0 0
1146 1 2.4431865761154619e+01 1.7666809946457485e+00 5.3024429914740141e+00 0 1 0
362 1 2.5689715798466455e+01 1.4496573294848588e+01 2.0892801572973241e+01 0 0 0
195 1 1.5182153803019478e+00 1.9436080860666245e+01 1.4217132292401915e+00 0 0 0
308 1 2.2082701144216042e+01 6.7083949599742496e+00 1.6906209708459397e+01 0 0 0
309 1 1.2793091937799325e+01 1.9742210795342985e+00 1.9313035381042898e+01 0 0 0
310 1 2.2759239456989576e+01 1.6002897000118782e+01 1.6573535732496406e+01 0 0 0
600 1 2.8113576938087419e+01 8.5130155707567283e+00 2.2711755727535014e+01 0 0 0
818 1 2.2701375087362731e+01 6.1056470913106624e+00 2.6099805066957913e+00 0 0 1
2618 1 1.3129579360709876e+01 4.0897833945856021e+00 2.4663518819272948e+01 1 0 0
233 1 7.5325820358036335e+00 2.6740832776691132e+01 9.2478659422055092e+00 0 0 0
503 1 2.1407540519444950e+01 1.7849675064232809e+01 1.9375736733554952e+01 0 0 0
316 1 2.0666773444809447e+01 1.6941512644776907e+01 1.6245311452161783e+01 0 0 0
350 1 2.6462019770998999e+01 1.8398158586945637e+01 1.7534025349532946e+01 0 0 0
1290 1 9.8737717158869849e+00 2.5955191119202880e+01 1.6906255021248693e+01 0 0 0
919 1 2.6393037258907206e+01 1.7004473429414748e+01 1.3792537267123665e+01 0 0 1
606 1 2.8155139035637657e+01 3.0445648280593787e+00 1.9164987531443600e+01 0 0 0
2169 1 1.1529736794684171e+01 2.5303099918145332e+01 6.6901331541969338e+00 1 0 0
530 1 1.4834307208466941e+01 5.0072232755610955e+00 2.5897074286060125e+01 0 0 0
379 1 1.3791469577793837e+01 2.0777771267972504e+01 1.0464677981078761e+01 0 0 0
2245 1 1.8734670917327641e+01 1.8266385808780747e+01 1.3977151476795589e+01 0 0 0
3369 1 2.7337279730874187e+01 2.2077413152587535e+01 9.1407163337929764e-01 0 0 0
2757 1 2.1208847722486009e+01 1.6431786799574201e+01 2.7689958991051796e+01 0 0 0
553 1 2.1300180551964360e+01 1.0793459211517634e-01 2.4517165250358989e+01 0 0 0
2531 1 2.7188303209335164e+01 1.4434457262311408e+01 2.5439366771902208e+01 0 0 0
329 1 2.1420134318550993e+01 7.3704588905259678e+00 2.4635023731430760e+01 0 0 0
330 1 2.4703250289071086e+01 1.2010179477998536e+01 2.2120483080344229e+01 0 0 0
331 1 1.7620600818712571e+01 2.3205372658848731e+00 1.3498071514291683e+01 0 0 0
332 1 1.6353685335250393e+01 1.0542168386679737e+01 2.5713183211578936e+01 0 0 0
446 1 2.4958097678869795e+01 7.2898660054483440e+00 2.3139886023767559e+01 0 0 0
334 1 1.5296353619146641e+01 2.3176314572819688e+01 1.2921504441751628e+01 0 0 0
335 1 1.9430174465796117e+01 8.4086475939418506e+00 1.7050935593414106e+01 0 0 0
336 1 2.2121501565029103e+01 1.3452144640455121e+01 2.2234804757160710e+01 0 0 0
337 1 2.4346695584048344e+01 6.9365728560725852e+00 1.9791100020162432e+01 0 0 0
338 1 1.9856876189218475e+01 5.8820560449920913e+00 2.7432761452203138e+01 0 0 0
664 1 2.8107791603598073e+01 1.0568270864796892e+01 3.6591712779671738e+01 0 0 0
1295 1 2.0943424406799519e+01 2.8087177688127422e+01 3.1398414214742289e+01 0 0 0
436 1 2.6712994520963175e+01 1.4850683280055634e+01 2.8519215595892824e+01 0 0 0
434 1 4.8027766673407415e+00 4.7114326791966743e+00 3.9958333843260007e+01 0 0 0
867 1 6.7102041207651231e-01 2.4291185142171734e+01 4.5821693057196228e+01 0 0 0
3065 1 1.7804554294893382e+00 1.0878671928344842e+01 3.9919483570478270e+01 1 0 0
46 1 1.7310799928150612e+01 8.6388451851943167e+00 5.1399539449066602e+01 0 0 -1
34 1 1.0491982003974032e+00 1.9328787840120103e+01 4.9780938210844212e+01 0 0 -1
53 1 4.3537617622590616e+00 7.4416959734382520e+00 4.4369575717441165e+01 0 0 -1
522 1 5.7104003427852863e+00 5.8780206379162738e+00 3.5845966942828809e+01 0 0 0
3067 1 8.3373981106162169e+00 2.3406031797673879e+01 5.2931746951027705e+01 1 0 0
1934 1 1.7121004245095598e+01 2.5062688458440611e+01 4.6541006148114271e+01 0 0 0
2844 1 8.9857685708664337e-01 1.0259498730544736e+01 4.7323736925871323e+01 1 0 0
1077 1 2.0448943862555478e+01 2.6712667898280696e+01 5.1490587982691004e+01 0 0 -1
762 1 1.8373256888013302e+01 2.4100495712507659e+01 4.8221871610282982e+01 0 0 0
415 1 2.0159723800190655e+01 1.0094270472429745e+01 2.9463314074795054e+01 0 0 0
16 1 3.9823306206434683e+00 1.0516596020749918e+00 4.6997810552016873e+01 0 0 -1
902 1 6.1558532216581670e+00 1.3308857697277871e+01 5.0556415045849945e+01 0 0 0
3453 1 2.7375809258764122e+01 6.4401790607571527e+00 2.8356958596453996e+01 0 1 0
67 1 4.6558340248085663e+00 5.6572815819706967e+00 4.8156649776189745e+01 0 0 -1
871 1 5.1392802122076287e+00 2.6804566374418705e+01 5.2873366617223439e+01 0 0 0
968 1 4.3842268860823088e+00 2.0168465311781677e+01 5.0905836178709457e+01 0 0 0
3060 1 7.4390015508553331e+00 2.2999102903013810e+01 4.9456677597725353e+01 1 0 0
605 1 2.7735842558456582e+01 2.6830456014167982e+01 3.4123514883234442e+01 0 0 0
1961 1 1.8913186871002551e+01 2.4640580240864431e+01 5.4837124126957228e+01 0 0 0
36 1 2.7010107236789898e+00 2.2476150019041796e+01 5.5402284856501289e+01 0 0 -1
982 1 7.5471227399764436e+00 5.3723738101285052e+00 5.2091788273977969e+01 0 0 0