ITEM: TIMESTEP
0
ITEM: NUMBER OF ATOMS
13954
ITEM: BOX BOUNDS pp pp pp
0.0000000000000000e+00 4.2330393705159501e+01
0.0000000000000000e+00 4.2330393705159501e+01
0.0000000000000000e+00 4.2330393705159501e+01
ITEM: ATOMS id type x y z 
1 1 0 0 0 
2 1 1.05826 1.05826 0 
3 1 1.05826 0 1.05826 
4 1 0 1.05826 1.05826 
5 1 2.11652 0 0 
6 1 3.17478 1.05826 0 
7 1 3.17478 0 1.05826 
8 1 2.11652 1.05826 1.05826 
9 1 4.23304 0 0 
12 1 4.23304 1.05826 1.05826 
10 1 5.2913 1.05826 0 
11 1 5.2913 0 1.05826 
13 1 6.34956 0 0 
16 1 6.34956 1.05826 1.05826 
14 1 7.40782 1.05826 0 
15 1 7.40782 0 1.05826 
17 1 8.46608 0 0 
20 1 8.46608 1.05826 1.05826 
18 1 9.52434 1.05826 0 
19 1 9.52434 0 1.05826 
21 1 10.5826 0 0 
22 1 11.6409 1.05826 0 
23 1 11.6409 0 1.05826 
24 1 10.5826 1.05826 1.05826 
25 1 12.6991 0 0 
26 1 13.7574 1.05826 0 
27 1 13.7574 0 1.05826 
28 1 12.6991 1.05826 1.05826 
29 1 14.8156 0 0 
32 1 14.8156 1.05826 1.05826 
30 1 15.8739 1.05826 0 
31 1 15.8739 0 1.05826 
33 1 16.9322 0 0 
36 1 16.9322 1.05826 1.05826 
34 1 17.9904 1.05826 0 
35 1 17.9904 0 1.05826 
37 1 19.0487 0 0 
40 1 19.0487 1.05826 1.05826 
38 1 20.1069 1.05826 0 
39 1 20.1069 0 1.05826 
41 1 0 2.11652 0 
42 1 1.05826 3.17478 0 
43 1 1.05826 2.11652 1.05826 
44 1 0 3.17478 1.05826 
45 1 2.11652 2.11652 0 
46 1 3.17478 3.17478 0 
47 1 3.17478 2.11652 1.05826 
48 1 2.11652 3.17478 1.05826 
49 1 4.23304 2.11652 0 
52 1 4.23304 3.17478 1.05826 
50 1 5.2913 3.17478 0 
51 1 5.2913 2.11652 1.05826 
53 1 6.34956 2.11652 0 
56 1 6.34956 3.17478 1.05826 
54 1 7.40782 3.17478 0 
55 1 7.40782 2.11652 1.05826 
57 1 8.46608 2.11652 0 
60 1 8.46608 3.17478 1.05826 
58 1 9.52434 3.17478 0 
59 1 9.52434 2.11652 1.05826 
61 1 10.5826 2.11652 0 
62 1 11.6409 3.17478 0 
63 1 11.6409 2.11652 1.05826 
64 1 10.5826 3.17478 1.05826 
65 1 12.6991 2.11652 0 
66 1 13.7574 3.17478 0 
67 1 13.7574 2.11652 1.05826 
68 1 12.6991 3.17478 1.05826 
69 1 14.8156 2.11652 0 
72 1 14.8156 3.17478 1.05826 
70 1 15.8739 3.17478 0 
71 1 15.8739 2.11652 1.05826 
73 1 16.9322 2.11652 0 
76 1 16.9322 3.17478 1.05826 
74 1 17.9904 3.17478 0 
75 1 17.9904 2.11652 1.05826 
77 1 19.0487 2.11652 0 
80 1 19.0487 3.17478 1.05826 
78 1 20.1069 3.17478 0 
79 1 20.1069 2.11652 1.05826 
81 1 0 4.23304 0 
83 1 1.05826 4.23304 1.05826 
85 1 2.11652 4.23304 0 
87 1 3.17478 4.23304 1.05826 
89 1 4.23304 4.23304 0 
91 1 5.2913 4.23304 1.05826 
93 1 6.34956 4.23304 0 
95 1 7.40782 4.23304 1.05826 
97 1 8.46608 4.23304 0 
99 1 9.52434 4.23304 1.05826 
101 1 10.5826 4.23304 0 
103 1 11.6409 4.23304 1.05826 
105 1 12.6991 4.23304 0 
107 1 13.7574 4.23304 1.05826 
109 1 14.8156 4.23304 0 
111 1 15.8739 4.23304 1.05826 
113 1 16.9322 4.23304 0 
115 1 17.9904 4.23304 1.05826 
117 1 19.0487 4.23304 0 
119 1 20.1069 4.23304 1.05826 
82 1 1.05826 5.2913 0 
84 1 0 5.2913 1.05826 
121 1 0 6.34956 0 
123 1 1.05826 6.34956 1.05826 
86 1 3.17478 5.2913 0 
88 1 2.11652 5.2913 1.05826 
125 1 2.11652 6.34956 0 
127 1 3.17478 6.34956 1.05826 
92 1 4.23304 5.2913 1.05826 
129 1 4.23304 6.34956 0 
90 1 5.2913 5.2913 0 
96 1 6.34956 5.2913 1.05826 
131 1 5.2913 6.34956 1.05826 
133 1 6.34956 6.34956 0 
94 1 7.40782 5.2913 0 
100 1 8.46608 5.2913 1.05826 
135 1 7.40782 6.34956 1.05826 
137 1 8.46608 6.34956 0 
98 1 9.52434 5.2913 0 
139 1 9.52434 6.34956 1.05826 
102 1 11.6409 5.2913 0 
104 1 10.5826 5.2913 1.05826 
141 1 10.5826 6.34956 0 
143 1 11.6409 6.34956 1.05826 
106 1 13.7574 5.2913 0 
108 1 12.6991 5.2913 1.05826 
145 1 12.6991 6.34956 0 
147 1 13.7574 6.34956 1.05826 
112 1 14.8156 5.2913 1.05826 
149 1 14.8156 6.34956 0 
110 1 15.8739 5.2913 0 
116 1 16.9322 5.2913 1.05826 
151 1 15.8739 6.34956 1.05826 
153 1 16.9322 6.34956 0 
114 1 17.9904 5.2913 0 
120 1 19.0487 5.2913 1.05826 
155 1 17.9904 6.34956 1.05826 
157 1 19.0487 6.34956 0 
118 1 20.1069 5.2913 0 
122 1 1.05826 7.40782 0 
124 1 0 7.40782 1.05826 
161 1 0 8.46608 0 
163 1 1.05826 8.46608 1.05826 
126 1 3.17478 7.40782 0 
128 1 2.11652 7.40782 1.05826 
165 1 2.11652 8.46608 0 
167 1 3.17478 8.46608 1.05826 
132 1 4.23304 7.40782 1.05826 
169 1 4.23304 8.46608 0 
130 1 5.2913 7.40782 0 
134 1 7.40782 7.40782 0 
138 1 9.52434 7.40782 0 
142 1 11.6409 7.40782 0 
146 1 13.7574 7.40782 0 
148 1 12.6991 7.40782 1.05826 
185 1 12.6991 8.46608 0 
187 1 13.7574 8.46608 1.05826 
152 1 14.8156 7.40782 1.05826 
189 1 14.8156 8.46608 0 
150 1 15.8739 7.40782 0 
162 1 1.05826 9.52434 0 
164 1 0 9.52434 1.05826 
166 1 3.17478 9.52434 0 
168 1 2.11652 9.52434 1.05826 
186 1 13.7574 9.52434 0 
192 1 14.8156 9.52434 1.05826 
201 1 0 10.5826 0 
202 1 1.05826 11.6409 0 
203 1 1.05826 10.5826 1.05826 
204 1 0 11.6409 1.05826 
205 1 2.11652 10.5826 0 
229 1 14.8156 10.5826 0 
241 1 0 12.6991 0 
242 1 1.05826 13.7574 0 
244 1 0 13.7574 1.05826 
281 1 0 14.8156 0 
282 1 1.05826 15.8739 0 
284 1 0 15.8739 1.05826 
321 1 0 16.9322 0 
322 1 1.05826 17.9904 0 
324 1 0 17.9904 1.05826 
361 1 0 19.0487 0 
363 1 1.05826 19.0487 1.05826 
365 1 2.11652 19.0487 0 
389 1 14.8156 19.0487 0 
350 1 15.8739 17.9904 0 
391 1 15.8739 19.0487 1.05826 
393 1 16.9322 19.0487 0 
362 1 1.05826 20.1069 0 
364 1 0 20.1069 1.05826 
366 1 3.17478 20.1069 0 
368 1 2.11652 20.1069 1.05826 
386 1 13.7574 20.1069 0 
390 1 15.8739 20.1069 0 
396 1 16.9322 20.1069 1.05826 
394 1 17.9904 20.1069 0 
400 1 19.0487 20.1069 1.05826 
398 1 20.1069 20.1069 0 
401 1 0 0 2.11652 
402 1 1.05826 1.05826 2.11652 
403 1 1.05826 0 3.17478 
404 1 0 1.05826 3.17478 
405 1 2.11652 0 2.11652 
406 1 3.17478 1.05826 2.11652 
407 1 3.17478 0 3.17478 
408 1 2.11652 1.05826 3.17478 
409 1 4.23304 0 2.11652 
412 1 4.23304 1.05826 3.17478 
410 1 5.2913 1.05826 2.11652 
411 1 5.2913 0 3.17478 
413 1 6.34956 0 2.11652 
416 1 6.34956 1.05826 3.17478 
414 1 7.40782 1.05826 2.11652 
415 1 7.40782 0 3.17478 
417 1 8.46608 0 2.11652 
420 1 8.46608 1.05826 3.17478 
418 1 9.52434 1.05826 2.11652 
419 1 9.52434 0 3.17478 
421 1 10.5826 0 2.11652 
422 1 11.6409 1.05826 2.11652 
423 1 11.6409 0 3.17478 
424 1 10.5826 1.05826 3.17478 
425 1 12.6991 0 2.11652 
426 1 13.7574 1.05826 2.11652 
427 1 13.7574 0 3.17478 
428 1 12.6991 1.05826 3.17478 
429 1 14.8156 0 2.11652 
432 1 14.8156 1.05826 3.17478 
430 1 15.8739 1.05826 2.11652 
431 1 15.8739 0 3.17478 
433 1 16.9322 0 2.11652 
436 1 16.9322 1.05826 3.17478 
434 1 17.9904 1.05826 2.11652 
435 1 17.9904 0 3.17478 
437 1 19.0487 0 2.11652 
440 1 19.0487 1.05826 3.17478 
438 1 20.1069 1.05826 2.11652 
439 1 20.1069 0 3.17478 
441 1 0 2.11652 2.11652 
442 1 1.05826 3.17478 2.11652 
443 1 1.05826 2.11652 3.17478 
444 1 0 3.17478 3.17478 
445 1 2.11652 2.11652 2.11652 
446 1 3.17478 3.17478 2.11652 
447 1 3.17478 2.11652 3.17478 
448 1 2.11652 3.17478 3.17478 
449 1 4.23304 2.11652 2.11652 
452 1 4.23304 3.17478 3.17478 
450 1 5.2913 3.17478 2.11652 
451 1 5.2913 2.11652 3.17478 
453 1 6.34956 2.11652 2.11652 
456 1 6.34956 3.17478 3.17478 
454 1 7.40782 3.17478 2.11652 
455 1 7.40782 2.11652 3.17478 
457 1 8.46608 2.11652 2.11652 
460 1 8.46608 3.17478 3.17478 
458 1 9.52434 3.17478 2.11652 
459 1 9.52434 2.11652 3.17478 
461 1 10.5826 2.11652 2.11652 
462 1 11.6409 3.17478 2.11652 
463 1 11.6409 2.11652 3.17478 
464 1 10.5826 3.17478 3.17478 
465 1 12.6991 2.11652 2.11652 
466 1 13.7574 3.17478 2.11652 
467 1 13.7574 2.11652 3.17478 
468 1 12.6991 3.17478 3.17478 
469 1 14.8156 2.11652 2.11652 
472 1 14.8156 3.17478 3.17478 
470 1 15.8739 3.17478 2.11652 
471 1 15.8739 2.11652 3.17478 
473 1 16.9322 2.11652 2.11652 
476 1 16.9322 3.17478 3.17478 
474 1 17.9904 3.17478 2.11652 
475 1 17.9904 2.11652 3.17478 
477 1 19.0487 2.11652 2.11652 
480 1 19.0487 3.17478 3.17478 
478 1 20.1069 3.17478 2.11652 
479 1 20.1069 2.11652 3.17478 
481 1 0 4.23304 2.11652 
483 1 1.05826 4.23304 3.17478 
485 1 2.11652 4.23304 2.11652 
487 1 3.17478 4.23304 3.17478 
489 1 4.23304 4.23304 2.11652 
491 1 5.2913 4.23304 3.17478 
493 1 6.34956 4.23304 2.11652 
495 1 7.40782 4.23304 3.17478 
497 1 8.46608 4.23304 2.11652 
499 1 9.52434 4.23304 3.17478 
501 1 10.5826 4.23304 2.11652 
503 1 11.6409 4.23304 3.17478 
505 1 12.6991 4.23304 2.11652 
507 1 13.7574 4.23304 3.17478 
509 1 14.8156 4.23304 2.11652 
511 1 15.8739 4.23304 3.17478 
513 1 16.9322 4.23304 2.11652 
515 1 17.9904 4.23304 3.17478 
517 1 19.0487 4.23304 2.11652 
519 1 20.1069 4.23304 3.17478 
482 1 1.05826 5.2913 2.11652 
484 1 0 5.2913 3.17478 
521 1 0 6.34956 2.11652 
523 1 1.05826 6.34956 3.17478 
486 1 3.17478 5.2913 2.11652 
488 1 2.11652 5.2913 3.17478 
525 1 2.11652 6.34956 2.11652 
527 1 3.17478 6.34956 3.17478 
492 1 4.23304 5.2913 3.17478 
529 1 4.23304 6.34956 2.11652 
490 1 5.2913 5.2913 2.11652 
496 1 6.34956 5.2913 3.17478 
533 1 6.34956 6.34956 2.11652 
494 1 7.40782 5.2913 2.11652 
500 1 8.46608 5.2913 3.17478 
498 1 9.52434 5.2913 2.11652 
502 1 11.6409 5.2913 2.11652 
504 1 10.5826 5.2913 3.17478 
506 1 13.7574 5.2913 2.11652 
508 1 12.6991 5.2913 3.17478 
545 1 12.6991 6.34956 2.11652 
547 1 13.7574 6.34956 3.17478 
512 1 14.8156 5.2913 3.17478 
549 1 14.8156 6.34956 2.11652 
510 1 15.8739 5.2913 2.11652 
516 1 16.9322 5.2913 3.17478 
551 1 15.8739 6.34956 3.17478 
553 1 16.9322 6.34956 2.11652 
514 1 17.9904 5.2913 2.11652 
520 1 19.0487 5.2913 3.17478 
518 1 20.1069 5.2913 2.11652 
522 1 1.05826 7.40782 2.11652 
524 1 0 7.40782 3.17478 
561 1 0 8.46608 2.11652 
563 1 1.05826 8.46608 3.17478 
526 1 3.17478 7.40782 2.11652 
528 1 2.11652 7.40782 3.17478 
565 1 2.11652 8.46608 2.11652 
546 1 13.7574 7.40782 2.11652 
552 1 14.8156 7.40782 3.17478 
589 1 14.8156 8.46608 2.11652 
550 1 15.8739 7.40782 2.11652 
562 1 1.05826 9.52434 2.11652 
564 1 0 9.52434 3.17478 
601 1 0 10.5826 2.11652 
761 1 0 19.0487 2.11652 
793 1 16.9322 19.0487 2.11652 
762 1 1.05826 20.1069 2.11652 
764 1 0 20.1069 3.17478 
794 1 17.9904 20.1069 2.11652 
800 1 19.0487 20.1069 3.17478 
798 1 20.1069 20.1069 2.11652 
801 1 0 0 4.23304 
802 1 1.05826 1.05826 4.23304 
805 1 2.11652 0 4.23304 
806 1 3.17478 1.05826 4.23304 
809 1 4.23304 0 4.23304 
810 1 5.2913 1.05826 4.23304 
813 1 6.34956 0 4.23304 
814 1 7.40782 1.05826 4.23304 
817 1 8.46608 0 4.23304 
818 1 9.52434 1.05826 4.23304 
821 1 10.5826 0 4.23304 
822 1 11.6409 1.05826 4.23304 
825 1 12.6991 0 4.23304 
826 1 13.7574 1.05826 4.23304 
829 1 14.8156 0 4.23304 
830 1 15.8739 1.05826 4.23304 
833 1 16.9322 0 4.23304 
834 1 17.9904 1.05826 4.23304 
837 1 19.0487 0 4.23304 
838 1 20.1069 1.05826 4.23304 
841 1 0 2.11652 4.23304 
842 1 1.05826 3.17478 4.23304 
845 1 2.11652 2.11652 4.23304 
846 1 3.17478 3.17478 4.23304 
849 1 4.23304 2.11652 4.23304 
850 1 5.2913 3.17478 4.23304 
853 1 6.34956 2.11652 4.23304 
854 1 7.40782 3.17478 4.23304 
857 1 8.46608 2.11652 4.23304 
858 1 9.52434 3.17478 4.23304 
861 1 10.5826 2.11652 4.23304 
862 1 11.6409 3.17478 4.23304 
865 1 12.6991 2.11652 4.23304 
866 1 13.7574 3.17478 4.23304 
869 1 14.8156 2.11652 4.23304 
870 1 15.8739 3.17478 4.23304 
873 1 16.9322 2.11652 4.23304 
874 1 17.9904 3.17478 4.23304 
877 1 19.0487 2.11652 4.23304 
878 1 20.1069 3.17478 4.23304 
881 1 0 4.23304 4.23304 
885 1 2.11652 4.23304 4.23304 
889 1 4.23304 4.23304 4.23304 
893 1 6.34956 4.23304 4.23304 
897 1 8.46608 4.23304 4.23304 
901 1 10.5826 4.23304 4.23304 
905 1 12.6991 4.23304 4.23304 
909 1 14.8156 4.23304 4.23304 
913 1 16.9322 4.23304 4.23304 
917 1 19.0487 4.23304 4.23304 
882 1 1.05826 5.2913 4.23304 
921 1 0 6.34956 4.23304 
886 1 3.17478 5.2913 4.23304 
925 1 2.11652 6.34956 4.23304 
890 1 5.2913 5.2913 4.23304 
902 1 11.6409 5.2913 4.23304 
906 1 13.7574 5.2913 4.23304 
949 1 14.8156 6.34956 4.23304 
910 1 15.8739 5.2913 4.23304 
953 1 16.9322 6.34956 4.23304 
914 1 17.9904 5.2913 4.23304 
918 1 20.1069 5.2913 4.23304 
922 1 1.05826 7.40782 4.23304 
961 1 0 8.46608 4.23304 
950 1 15.8739 7.40782 4.23304 
1194 1 17.9904 20.1069 4.23304 
803 1 1.05826 0 5.2913 
804 1 0 1.05826 5.2913 
1201 1 0 0 6.34956 
1202 1 1.05826 1.05826 6.34956 
807 1 3.17478 0 5.2913 
808 1 2.11652 1.05826 5.2913 
1205 1 2.11652 0 6.34956 
1206 1 3.17478 1.05826 6.34956 
812 1 4.23304 1.05826 5.2913 
1209 1 4.23304 0 6.34956 
811 1 5.2913 0 5.2913 
816 1 6.34956 1.05826 5.2913 
1210 1 5.2913 1.05826 6.34956 
1213 1 6.34956 0 6.34956 
815 1 7.40782 0 5.2913 
820 1 8.46608 1.05826 5.2913 
1214 1 7.40782 1.05826 6.34956 
1217 1 8.46608 0 6.34956 
819 1 9.52434 0 5.2913 
1218 1 9.52434 1.05826 6.34956 
823 1 11.6409 0 5.2913 
824 1 10.5826 1.05826 5.2913 
1221 1 10.5826 0 6.34956 
1222 1 11.6409 1.05826 6.34956 
827 1 13.7574 0 5.2913 
828 1 12.6991 1.05826 5.2913 
1225 1 12.6991 0 6.34956 
1226 1 13.7574 1.05826 6.34956 
832 1 14.8156 1.05826 5.2913 
1229 1 14.8156 0 6.34956 
831 1 15.8739 0 5.2913 
836 1 16.9322 1.05826 5.2913 
1230 1 15.8739 1.05826 6.34956 
1233 1 16.9322 0 6.34956 
835 1 17.9904 0 5.2913 
840 1 19.0487 1.05826 5.2913 
1234 1 17.9904 1.05826 6.34956 
1237 1 19.0487 0 6.34956 
839 1 20.1069 0 5.2913 
1238 1 20.1069 1.05826 6.34956 
843 1 1.05826 2.11652 5.2913 
844 1 0 3.17478 5.2913 
1241 1 0 2.11652 6.34956 
1242 1 1.05826 3.17478 6.34956 
847 1 3.17478 2.11652 5.2913 
848 1 2.11652 3.17478 5.2913 
1245 1 2.11652 2.11652 6.34956 
1246 1 3.17478 3.17478 6.34956 
852 1 4.23304 3.17478 5.2913 
1249 1 4.23304 2.11652 6.34956 
851 1 5.2913 2.11652 5.2913 
856 1 6.34956 3.17478 5.2913 
1250 1 5.2913 3.17478 6.34956 
1253 1 6.34956 2.11652 6.34956 
855 1 7.40782 2.11652 5.2913 
860 1 8.46608 3.17478 5.2913 
1254 1 7.40782 3.17478 6.34956 
1257 1 8.46608 2.11652 6.34956 
859 1 9.52434 2.11652 5.2913 
1258 1 9.52434 3.17478 6.34956 
863 1 11.6409 2.11652 5.2913 
864 1 10.5826 3.17478 5.2913 
1261 1 10.5826 2.11652 6.34956 
1262 1 11.6409 3.17478 6.34956 
867 1 13.7574 2.11652 5.2913 
868 1 12.6991 3.17478 5.2913 
1265 1 12.6991 2.11652 6.34956 
1266 1 13.7574 3.17478 6.34956 
872 1 14.8156 3.17478 5.2913 
1269 1 14.8156 2.11652 6.34956 
871 1 15.8739 2.11652 5.2913 
876 1 16.9322 3.17478 5.2913 
1270 1 15.8739 3.17478 6.34956 
1273 1 16.9322 2.11652 6.34956 
875 1 17.9904 2.11652 5.2913 
880 1 19.0487 3.17478 5.2913 
1274 1 17.9904 3.17478 6.34956 
1277 1 19.0487 2.11652 6.34956 
879 1 20.1069 2.11652 5.2913 
1278 1 20.1069 3.17478 6.34956 
883 1 1.05826 4.23304 5.2913 
1281 1 0 4.23304 6.34956 
887 1 3.17478 4.23304 5.2913 
1285 1 2.11652 4.23304 6.34956 
1289 1 4.23304 4.23304 6.34956 
891 1 5.2913 4.23304 5.2913 
1293 1 6.34956 4.23304 6.34956 
895 1 7.40782 4.23304 5.2913 
899 1 9.52434 4.23304 5.2913 
903 1 11.6409 4.23304 5.2913 
1301 1 10.5826 4.23304 6.34956 
907 1 13.7574 4.23304 5.2913 
1305 1 12.6991 4.23304 6.34956 
1309 1 14.8156 4.23304 6.34956 
911 1 15.8739 4.23304 5.2913 
1313 1 16.9322 4.23304 6.34956 
915 1 17.9904 4.23304 5.2913 
1317 1 19.0487 4.23304 6.34956 
919 1 20.1069 4.23304 5.2913 
884 1 0 5.2913 5.2913 
923 1 1.05826 6.34956 5.2913 
1282 1 1.05826 5.2913 6.34956 
1321 1 0 6.34956 6.34956 
888 1 2.11652 5.2913 5.2913 
1286 1 3.17478 5.2913 6.34956 
1325 1 2.11652 6.34956 6.34956 
892 1 4.23304 5.2913 5.2913 
908 1 12.6991 5.2913 5.2913 
1306 1 13.7574 5.2913 6.34956 
912 1 14.8156 5.2913 5.2913 
916 1 16.9322 5.2913 5.2913 
951 1 15.8739 6.34956 5.2913 
1310 1 15.8739 5.2913 6.34956 
1353 1 16.9322 6.34956 6.34956 
920 1 19.0487 5.2913 5.2913 
955 1 17.9904 6.34956 5.2913 
1314 1 17.9904 5.2913 6.34956 
1357 1 19.0487 6.34956 6.34956 
1318 1 20.1069 5.2913 6.34956 
924 1 0 7.40782 5.2913 
1361 1 0 8.46608 6.34956 
1200 1 19.0487 20.1069 5.2913 
1203 1 1.05826 0 7.40782 
1204 1 0 1.05826 7.40782 
1601 1 0 0 8.46608 
1602 1 1.05826 1.05826 8.46608 
1207 1 3.17478 0 7.40782 
1208 1 2.11652 1.05826 7.40782 
1605 1 2.11652 0 8.46608 
1606 1 3.17478 1.05826 8.46608 
1212 1 4.23304 1.05826 7.40782 
1609 1 4.23304 0 8.46608 
1211 1 5.2913 0 7.40782 
1216 1 6.34956 1.05826 7.40782 
1610 1 5.2913 1.05826 8.46608 
1613 1 6.34956 0 8.46608 
1215 1 7.40782 0 7.40782 
1220 1 8.46608 1.05826 7.40782 
1614 1 7.40782 1.05826 8.46608 
1617 1 8.46608 0 8.46608 
1219 1 9.52434 0 7.40782 
1618 1 9.52434 1.05826 8.46608 
1223 1 11.6409 0 7.40782 
1224 1 10.5826 1.05826 7.40782 
1621 1 10.5826 0 8.46608 
1622 1 11.6409 1.05826 8.46608 
1227 1 13.7574 0 7.40782 
1228 1 12.6991 1.05826 7.40782 
1625 1 12.6991 0 8.46608 
1626 1 13.7574 1.05826 8.46608 
1232 1 14.8156 1.05826 7.40782 
1629 1 14.8156 0 8.46608 
1231 1 15.8739 0 7.40782 
1236 1 16.9322 1.05826 7.40782 
1630 1 15.8739 1.05826 8.46608 
1633 1 16.9322 0 8.46608 
1235 1 17.9904 0 7.40782 
1240 1 19.0487 1.05826 7.40782 
1634 1 17.9904 1.05826 8.46608 
1637 1 19.0487 0 8.46608 
1239 1 20.1069 0 7.40782 
1638 1 20.1069 1.05826 8.46608 
1243 1 1.05826 2.11652 7.40782 
1244 1 0 3.17478 7.40782 
1641 1 0 2.11652 8.46608 
1642 1 1.05826 3.17478 8.46608 
1247 1 3.17478 2.11652 7.40782 
1248 1 2.11652 3.17478 7.40782 
1645 1 2.11652 2.11652 8.46608 
1646 1 3.17478 3.17478 8.46608 
1252 1 4.23304 3.17478 7.40782 
1649 1 4.23304 2.11652 8.46608 
1251 1 5.2913 2.11652 7.40782 
1256 1 6.34956 3.17478 7.40782 
1650 1 5.2913 3.17478 8.46608 
1653 1 6.34956 2.11652 8.46608 
1255 1 7.40782 2.11652 7.40782 
1260 1 8.46608 3.17478 7.40782 
1654 1 7.40782 3.17478 8.46608 
1657 1 8.46608 2.11652 8.46608 
1259 1 9.52434 2.11652 7.40782 
1658 1 9.52434 3.17478 8.46608 
1263 1 11.6409 2.11652 7.40782 
1264 1 10.5826 3.17478 7.40782 
1661 1 10.5826 2.11652 8.46608 
1662 1 11.6409 3.17478 8.46608 
1267 1 13.7574 2.11652 7.40782 
1268 1 12.6991 3.17478 7.40782 
1665 1 12.6991 2.11652 8.46608 
1666 1 13.7574 3.17478 8.46608 
1272 1 14.8156 3.17478 7.40782 
1669 1 14.8156 2.11652 8.46608 
1271 1 15.8739 2.11652 7.40782 
1276 1 16.9322 3.17478 7.40782 
1670 1 15.8739 3.17478 8.46608 
1673 1 16.9322 2.11652 8.46608 
1275 1 17.9904 2.11652 7.40782 
1280 1 19.0487 3.17478 7.40782 
1674 1 17.9904 3.17478 8.46608 
1677 1 19.0487 2.11652 8.46608 
1279 1 20.1069 2.11652 7.40782 
1678 1 20.1069 3.17478 8.46608 
1283 1 1.05826 4.23304 7.40782 
1681 1 0 4.23304 8.46608 
1287 1 3.17478 4.23304 7.40782 
1685 1 2.11652 4.23304 8.46608 
1689 1 4.23304 4.23304 8.46608 
1291 1 5.2913 4.23304 7.40782 
1303 1 11.6409 4.23304 7.40782 
1307 1 13.7574 4.23304 7.40782 
1705 1 12.6991 4.23304 8.46608 
1709 1 14.8156 4.23304 8.46608 
1311 1 15.8739 4.23304 7.40782 
1713 1 16.9322 4.23304 8.46608 
1315 1 17.9904 4.23304 7.40782 
1717 1 19.0487 4.23304 8.46608 
1319 1 20.1069 4.23304 7.40782 
1284 1 0 5.2913 7.40782 
1323 1 1.05826 6.34956 7.40782 
1682 1 1.05826 5.2913 8.46608 
1721 1 0 6.34956 8.46608 
1288 1 2.11652 5.2913 7.40782 
1686 1 3.17478 5.2913 8.46608 
1312 1 14.8156 5.2913 7.40782 
1316 1 16.9322 5.2913 7.40782 
1351 1 15.8739 6.34956 7.40782 
1710 1 15.8739 5.2913 8.46608 
1753 1 16.9322 6.34956 8.46608 
1320 1 19.0487 5.2913 7.40782 
1355 1 17.9904 6.34956 7.40782 
1714 1 17.9904 5.2913 8.46608 
1757 1 19.0487 6.34956 8.46608 
1359 1 20.1069 6.34956 7.40782 
1718 1 20.1069 5.2913 8.46608 
1324 1 0 7.40782 7.40782 
1356 1 16.9322 7.40782 7.40782 
1754 1 17.9904 7.40782 8.46608 
1758 1 20.1069 7.40782 8.46608 
1997 1 19.0487 19.0487 8.46608 
1600 1 19.0487 20.1069 7.40782 
1603 1 1.05826 0 9.52434 
1604 1 0 1.05826 9.52434 
1607 1 3.17478 0 9.52434 
1608 1 2.11652 1.05826 9.52434 
1612 1 4.23304 1.05826 9.52434 
1611 1 5.2913 0 9.52434 
1616 1 6.34956 1.05826 9.52434 
1615 1 7.40782 0 9.52434 
1620 1 8.46608 1.05826 9.52434 
1619 1 9.52434 0 9.52434 
1623 1 11.6409 0 9.52434 
1624 1 10.5826 1.05826 9.52434 
1627 1 13.7574 0 9.52434 
1628 1 12.6991 1.05826 9.52434 
1632 1 14.8156 1.05826 9.52434 
1631 1 15.8739 0 9.52434 
1636 1 16.9322 1.05826 9.52434 
1635 1 17.9904 0 9.52434 
1640 1 19.0487 1.05826 9.52434 
1639 1 20.1069 0 9.52434 
1643 1 1.05826 2.11652 9.52434 
1644 1 0 3.17478 9.52434 
1647 1 3.17478 2.11652 9.52434 
1648 1 2.11652 3.17478 9.52434 
1652 1 4.23304 3.17478 9.52434 
1651 1 5.2913 2.11652 9.52434 
1656 1 6.34956 3.17478 9.52434 
1655 1 7.40782 2.11652 9.52434 
1660 1 8.46608 3.17478 9.52434 
1659 1 9.52434 2.11652 9.52434 
1663 1 11.6409 2.11652 9.52434 
1664 1 10.5826 3.17478 9.52434 
1667 1 13.7574 2.11652 9.52434 
1668 1 12.6991 3.17478 9.52434 
1672 1 14.8156 3.17478 9.52434 
1671 1 15.8739 2.11652 9.52434 
1676 1 16.9322 3.17478 9.52434 
1675 1 17.9904 2.11652 9.52434 
1680 1 19.0487 3.17478 9.52434 
1679 1 20.1069 2.11652 9.52434 
1683 1 1.05826 4.23304 9.52434 
1687 1 3.17478 4.23304 9.52434 
1691 1 5.2913 4.23304 9.52434 
1703 1 11.6409 4.23304 9.52434 
1707 1 13.7574 4.23304 9.52434 
1711 1 15.8739 4.23304 9.52434 
1715 1 17.9904 4.23304 9.52434 
1719 1 20.1069 4.23304 9.52434 
1684 1 0 5.2913 9.52434 
1723 1 1.05826 6.34956 9.52434 
1688 1 2.11652 5.2913 9.52434 
1712 1 14.8156 5.2913 9.52434 
1716 1 16.9322 5.2913 9.52434 
1751 1 15.8739 6.34956 9.52434 
1720 1 19.0487 5.2913 9.52434 
1755 1 17.9904 6.34956 9.52434 
1759 1 20.1069 6.34956 9.52434 
1724 1 0 7.40782 9.52434 
1756 1 16.9322 7.40782 9.52434 
1760 1 19.0487 7.40782 9.52434 
1795 1 17.9904 8.46608 9.52434 
1799 1 20.1069 8.46608 9.52434 
2000 1 19.0487 20.1069 9.52434 
2001 1 0 0 10.5826 
2002 1 1.05826 1.05826 10.5826 
2003 1 1.05826 0 11.6409 
2004 1 0 1.05826 11.6409 
2005 1 2.11652 0 10.5826 
2006 1 3.17478 1.05826 10.5826 
2007 1 3.17478 0 11.6409 
2008 1 2.11652 1.05826 11.6409 
2009 1 4.23304 0 10.5826 
2012 1 4.23304 1.05826 11.6409 
2010 1 5.2913 1.05826 10.5826 
2011 1 5.2913 0 11.6409 
2013 1 6.34956 0 10.5826 
2016 1 6.34956 1.05826 11.6409 
2014 1 7.40782 1.05826 10.5826 
2015 1 7.40782 0 11.6409 
2017 1 8.46608 0 10.5826 
2020 1 8.46608 1.05826 11.6409 
2018 1 9.52434 1.05826 10.5826 
2019 1 9.52434 0 11.6409 
2021 1 10.5826 0 10.5826 
2022 1 11.6409 1.05826 10.5826 
2023 1 11.6409 0 11.6409 
2024 1 10.5826 1.05826 11.6409 
2025 1 12.6991 0 10.5826 
2026 1 13.7574 1.05826 10.5826 
2027 1 13.7574 0 11.6409 
2028 1 12.6991 1.05826 11.6409 
2029 1 14.8156 0 10.5826 
2032 1 14.8156 1.05826 11.6409 
2030 1 15.8739 1.05826 10.5826 
2031 1 15.8739 0 11.6409 
2033 1 16.9322 0 10.5826 
2036 1 16.9322 1.05826 11.6409 
2034 1 17.9904 1.05826 10.5826 
2035 1 17.9904 0 11.6409 
2037 1 19.0487 0 10.5826 
2040 1 19.0487 1.05826 11.6409 
2038 1 20.1069 1.05826 10.5826 
2039 1 20.1069 0 11.6409 
2041 1 0 2.11652 10.5826 
2042 1 1.05826 3.17478 10.5826 
2043 1 1.05826 2.11652 11.6409 
2044 1 0 3.17478 11.6409 
2045 1 2.11652 2.11652 10.5826 
2046 1 3.17478 3.17478 10.5826 
2047 1 3.17478 2.11652 11.6409 
2048 1 2.11652 3.17478 11.6409 
2049 1 4.23304 2.11652 10.5826 
2052 1 4.23304 3.17478 11.6409 
2050 1 5.2913 3.17478 10.5826 
2051 1 5.2913 2.11652 11.6409 
2053 1 6.34956 2.11652 10.5826 
2056 1 6.34956 3.17478 11.6409 
2054 1 7.40782 3.17478 10.5826 
2055 1 7.40782 2.11652 11.6409 
2057 1 8.46608 2.11652 10.5826 
2060 1 8.46608 3.17478 11.6409 
2058 1 9.52434 3.17478 10.5826 
2059 1 9.52434 2.11652 11.6409 
2061 1 10.5826 2.11652 10.5826 
2062 1 11.6409 3.17478 10.5826 
2063 1 11.6409 2.11652 11.6409 
2064 1 10.5826 3.17478 11.6409 
2065 1 12.6991 2.11652 10.5826 
2066 1 13.7574 3.17478 10.5826 
2067 1 13.7574 2.11652 11.6409 
2068 1 12.6991 3.17478 11.6409 
2069 1 14.8156 2.11652 10.5826 
2072 1 14.8156 3.17478 11.6409 
2070 1 15.8739 3.17478 10.5826 
2071 1 15.8739 2.11652 11.6409 
2073 1 16.9322 2.11652 10.5826 
2076 1 16.9322 3.17478 11.6409 
2074 1 17.9904 3.17478 10.5826 
2075 1 17.9904 2.11652 11.6409 
2077 1 19.0487 2.11652 10.5826 
2080 1 19.0487 3.17478 11.6409 
2078 1 20.1069 3.17478 10.5826 
2079 1 20.1069 2.11652 11.6409 
2081 1 0 4.23304 10.5826 
2083 1 1.05826 4.23304 11.6409 
2085 1 2.11652 4.23304 10.5826 
2087 1 3.17478 4.23304 11.6409 
2089 1 4.23304 4.23304 10.5826 
2091 1 5.2913 4.23304 11.6409 
2093 1 6.34956 4.23304 10.5826 
2095 1 7.40782 4.23304 11.6409 
2099 1 9.52434 4.23304 11.6409 
2101 1 10.5826 4.23304 10.5826 
2103 1 11.6409 4.23304 11.6409 
2105 1 12.6991 4.23304 10.5826 
2107 1 13.7574 4.23304 11.6409 
2109 1 14.8156 4.23304 10.5826 
2111 1 15.8739 4.23304 11.6409 
2113 1 16.9322 4.23304 10.5826 
2115 1 17.9904 4.23304 11.6409 
2117 1 19.0487 4.23304 10.5826 
2119 1 20.1069 4.23304 11.6409 
2082 1 1.05826 5.2913 10.5826 
2084 1 0 5.2913 11.6409 
2121 1 0 6.34956 10.5826 
2123 1 1.05826 6.34956 11.6409 
2086 1 3.17478 5.2913 10.5826 
2088 1 2.11652 5.2913 11.6409 
2092 1 4.23304 5.2913 11.6409 
2106 1 13.7574 5.2913 10.5826 
2112 1 14.8156 5.2913 11.6409 
2110 1 15.8739 5.2913 10.5826 
2116 1 16.9322 5.2913 11.6409 
2151 1 15.8739 6.34956 11.6409 
2153 1 16.9322 6.34956 10.5826 
2114 1 17.9904 5.2913 10.5826 
2120 1 19.0487 5.2913 11.6409 
2155 1 17.9904 6.34956 11.6409 
2157 1 19.0487 6.34956 10.5826 
2118 1 20.1069 5.2913 10.5826 
2159 1 20.1069 6.34956 11.6409 
2124 1 0 7.40782 11.6409 
2156 1 16.9322 7.40782 11.6409 
2154 1 17.9904 7.40782 10.5826 
2160 1 19.0487 7.40782 11.6409 
2195 1 17.9904 8.46608 11.6409 
2197 1 19.0487 8.46608 10.5826 
2158 1 20.1069 7.40782 10.5826 
2199 1 20.1069 8.46608 11.6409 
2200 1 19.0487 9.52434 11.6409 
2198 1 20.1069 9.52434 10.5826 
2237 1 19.0487 10.5826 10.5826 
2240 1 19.0487 11.6409 11.6409 
2239 1 20.1069 10.5826 11.6409 
2279 1 20.1069 12.6991 11.6409 
2319 1 20.1069 14.8156 11.6409 
2318 1 20.1069 15.8739 10.5826 
2359 1 20.1069 16.9322 11.6409 
2360 1 19.0487 17.9904 11.6409 
2397 1 19.0487 19.0487 10.5826 
2400 1 19.0487 20.1069 11.6409 
2401 1 0 0 12.6991 
2402 1 1.05826 1.05826 12.6991 
2403 1 1.05826 0 13.7574 
2404 1 0 1.05826 13.7574 
2405 1 2.11652 0 12.6991 
2406 1 3.17478 1.05826 12.6991 
2407 1 3.17478 0 13.7574 
2408 1 2.11652 1.05826 13.7574 
2409 1 4.23304 0 12.6991 
2412 1 4.23304 1.05826 13.7574 
2410 1 5.2913 1.05826 12.6991 
2411 1 5.2913 0 13.7574 
2413 1 6.34956 0 12.6991 
2416 1 6.34956 1.05826 13.7574 
2414 1 7.40782 1.05826 12.6991 
2415 1 7.40782 0 13.7574 
2417 1 8.46608 0 12.6991 
2420 1 8.46608 1.05826 13.7574 
2418 1 9.52434 1.05826 12.6991 
2419 1 9.52434 0 13.7574 
2421 1 10.5826 0 12.6991 
2422 1 11.6409 1.05826 12.6991 
2423 1 11.6409 0 13.7574 
2424 1 10.5826 1.05826 13.7574 
2425 1 12.6991 0 12.6991 
2426 1 13.7574 1.05826 12.6991 
2427 1 13.7574 0 13.7574 
2428 1 12.6991 1.05826 13.7574 
2429 1 14.8156 0 12.6991 
2432 1 14.8156 1.05826 13.7574 
2430 1 15.8739 1.05826 12.6991 
2431 1 15.8739 0 13.7574 
2433 1 16.9322 0 12.6991 
2436 1 16.9322 1.05826 13.7574 
2434 1 17.9904 1.05826 12.6991 
2435 1 17.9904 0 13.7574 
2437 1 19.0487 0 12.6991 
2440 1 19.0487 1.05826 13.7574 
2438 1 20.1069 1.05826 12.6991 
2439 1 20.1069 0 13.7574 
2441 1 0 2.11652 12.6991 
2442 1 1.05826 3.17478 12.6991 
2443 1 1.05826 2.11652 13.7574 
2444 1 0 3.17478 13.7574 
2445 1 2.11652 2.11652 12.6991 
2446 1 3.17478 3.17478 12.6991 
2447 1 3.17478 2.11652 13.7574 
2448 1 2.11652 3.17478 13.7574 
2449 1 4.23304 2.11652 12.6991 
2452 1 4.23304 3.17478 13.7574 
2450 1 5.2913 3.17478 12.6991 
2451 1 5.2913 2.11652 13.7574 
2453 1 6.34956 2.11652 12.6991 
2456 1 6.34956 3.17478 13.7574 
2454 1 7.40782 3.17478 12.6991 
2455 1 7.40782 2.11652 13.7574 
2457 1 8.46608 2.11652 12.6991 
2460 1 8.46608 3.17478 13.7574 
2458 1 9.52434 3.17478 12.6991 
2459 1 9.52434 2.11652 13.7574 
2461 1 10.5826 2.11652 12.6991 
2462 1 11.6409 3.17478 12.6991 
2463 1 11.6409 2.11652 13.7574 
2464 1 10.5826 3.17478 13.7574 
2465 1 12.6991 2.11652 12.6991 
2466 1 13.7574 3.17478 12.6991 
2467 1 13.7574 2.11652 13.7574 
2468 1 12.6991 3.17478 13.7574 
2469 1 14.8156 2.11652 12.6991 
2472 1 14.8156 3.17478 13.7574 
2470 1 15.8739 3.17478 12.6991 
2471 1 15.8739 2.11652 13.7574 
2473 1 16.9322 2.11652 12.6991 
2476 1 16.9322 3.17478 13.7574 
2474 1 17.9904 3.17478 12.6991 
2475 1 17.9904 2.11652 13.7574 
2477 1 19.0487 2.11652 12.6991 
2480 1 19.0487 3.17478 13.7574 
2478 1 20.1069 3.17478 12.6991 
2479 1 20.1069 2.11652 13.7574 
2481 1 0 4.23304 12.6991 
2483 1 1.05826 4.23304 13.7574 
2485 1 2.11652 4.23304 12.6991 
2487 1 3.17478 4.23304 13.7574 
2489 1 4.23304 4.23304 12.6991 
2491 1 5.2913 4.23304 13.7574 
2493 1 6.34956 4.23304 12.6991 
2495 1 7.40782 4.23304 13.7574 
2497 1 8.46608 4.23304 12.6991 
2499 1 9.52434 4.23304 13.7574 
2501 1 10.5826 4.23304 12.6991 
2503 1 11.6409 4.23304 13.7574 
2505 1 12.6991 4.23304 12.6991 
2507 1 13.7574 4.23304 13.7574 
2509 1 14.8156 4.23304 12.6991 
2511 1 15.8739 4.23304 13.7574 
2513 1 16.9322 4.23304 12.6991 
2515 1 17.9904 4.23304 13.7574 
2517 1 19.0487 4.23304 12.6991 
2519 1 20.1069 4.23304 13.7574 
2482 1 1.05826 5.2913 12.6991 
2484 1 0 5.2913 13.7574 
2521 1 0 6.34956 12.6991 
2523 1 1.05826 6.34956 13.7574 
2486 1 3.17478 5.2913 12.6991 
2488 1 2.11652 5.2913 13.7574 
2525 1 2.11652 6.34956 12.6991 
2527 1 3.17478 6.34956 13.7574 
2492 1 4.23304 5.2913 13.7574 
2490 1 5.2913 5.2913 12.6991 
2496 1 6.34956 5.2913 13.7574 
2504 1 10.5826 5.2913 13.7574 
2506 1 13.7574 5.2913 12.6991 
2508 1 12.6991 5.2913 13.7574 
2547 1 13.7574 6.34956 13.7574 
2512 1 14.8156 5.2913 13.7574 
2549 1 14.8156 6.34956 12.6991 
2510 1 15.8739 5.2913 12.6991 
2516 1 16.9322 5.2913 13.7574 
2551 1 15.8739 6.34956 13.7574 
2553 1 16.9322 6.34956 12.6991 
2514 1 17.9904 5.2913 12.6991 
2520 1 19.0487 5.2913 13.7574 
2555 1 17.9904 6.34956 13.7574 
2557 1 19.0487 6.34956 12.6991 
2518 1 20.1069 5.2913 12.6991 
2559 1 20.1069 6.34956 13.7574 
2522 1 1.05826 7.40782 12.6991 
2524 1 0 7.40782 13.7574 
2561 1 0 8.46608 12.6991 
2563 1 1.05826 8.46608 13.7574 
2528 1 2.11652 7.40782 13.7574 
2552 1 14.8156 7.40782 13.7574 
2550 1 15.8739 7.40782 12.6991 
2556 1 16.9322 7.40782 13.7574 
2593 1 16.9322 8.46608 12.6991 
2554 1 17.9904 7.40782 12.6991 
2560 1 19.0487 7.40782 13.7574 
2595 1 17.9904 8.46608 13.7574 
2597 1 19.0487 8.46608 12.6991 
2558 1 20.1069 7.40782 12.6991 
2599 1 20.1069 8.46608 13.7574 
2564 1 0 9.52434 13.7574 
2596 1 16.9322 9.52434 13.7574 
2594 1 17.9904 9.52434 12.6991 
2600 1 19.0487 9.52434 13.7574 
2598 1 20.1069 9.52434 12.6991 
2635 1 17.9904 10.5826 13.7574 
2637 1 19.0487 10.5826 12.6991 
2640 1 19.0487 11.6409 13.7574 
2638 1 20.1069 11.6409 12.6991 
2639 1 20.1069 10.5826 13.7574 
2677 1 19.0487 12.6991 12.6991 
2680 1 19.0487 13.7574 13.7574 
2678 1 20.1069 13.7574 12.6991 
2679 1 20.1069 12.6991 13.7574 
2717 1 19.0487 14.8156 12.6991 
2719 1 20.1069 14.8156 13.7574 