ITEM: TIMESTEP
0
ITEM: NUMBER OF ATOMS
6980
ITEM: BOX BOUNDS pp pp pp
0.0000000000000000e+00 4.2330393705159501e+01
0.0000000000000000e+00 4.2330393705159501e+01
0.0000000000000000e+00 4.2330393705159501e+01
ITEM: ATOMS id type x y z vx vy vz 
2284 1 0 15.8739 11.6409 -0.265892 0.176934 0.121757 
2323 1 1.05826 16.9322 11.6409 2.61261 0.0900991 0.484893 
2288 1 2.11652 15.8739 11.6409 0.822776 0.880238 0.707206 
2327 1 3.17478 16.9322 11.6409 0.483764 -1.40471 2.59006 
2292 1 4.23304 15.8739 11.6409 -0.774851 -0.120084 0.679465 
2296 1 6.34956 15.8739 11.6409 1.02622 -2.78717 0.119232 
2331 1 5.2913 16.9322 11.6409 -2.63401 1.06823 0.965624 
2300 1 8.46608 15.8739 11.6409 1.71598 -0.455279 -1.65947 
2335 1 7.40782 16.9322 11.6409 -0.0332415 -1.27225 1.92158 
2339 1 9.52434 16.9322 11.6409 -1.4474 0.32822 -0.838494 
2304 1 10.5826 15.8739 11.6409 -3.44308 -0.912558 -0.676628 
2343 1 11.6409 16.9322 11.6409 2.28247 0.63418 -0.664264 
2308 1 12.6991 15.8739 11.6409 -2.50746 1.04901 -0.0930523 
2347 1 13.7574 16.9322 11.6409 0.21725 0.654976 1.70777 
2312 1 14.8156 15.8739 11.6409 -0.00882248 -0.485385 -0.116262 
2316 1 16.9322 15.8739 11.6409 -0.720073 2.26429 1.20502 
2351 1 15.8739 16.9322 11.6409 1.11203 0.393677 0.481391 
2320 1 19.0487 15.8739 11.6409 -0.361307 1.59048 -1.18597 
2355 1 17.9904 16.9322 11.6409 2.53051 -0.230522 -0.311593 
2359 1 20.1069 16.9322 11.6409 0.287663 1.01435 0.149776 
2322 1 1.05826 17.9904 10.5826 -0.136712 -0.668811 -0.42619 
2324 1 0 17.9904 11.6409 1.59895 2.23069 -1.05415 
2361 1 0 19.0487 10.5826 -1.15295 0.282101 0.52591 
2363 1 1.05826 19.0487 11.6409 -0.788069 0.0558905 -1.20347 
2326 1 3.17478 17.9904 10.5826 -1.74698 0.304694 -0.507656 
2328 1 2.11652 17.9904 11.6409 -3.00231 0.977663 -0.465931 
2365 1 2.11652 19.0487 10.5826 -1.67906 1.52806 -0.663583 
2367 1 3.17478 19.0487 11.6409 -2.09118 -0.935176 1.28446 
2332 1 4.23304 17.9904 11.6409 -1.41235 -0.336919 -1.41006 
2369 1 4.23304 19.0487 10.5826 1.14067 -0.345604 -0.00277913 
2330 1 5.2913 17.9904 10.5826 2.68953 0.85508 0.404485 
2336 1 6.34956 17.9904 11.6409 0.393542 -0.213994 0.220789 
2371 1 5.2913 19.0487 11.6409 -2.96112 -0.589267 0.0203967 
2373 1 6.34956 19.0487 10.5826 0.242017 0.423176 0.527277 
2334 1 7.40782 17.9904 10.5826 1.59072 0.452482 -0.997968 
2340 1 8.46608 17.9904 11.6409 -0.203758 -2.09006 -2.09909 
2375 1 7.40782 19.0487 11.6409 1.16606 2.21845 0.27636 
2377 1 8.46608 19.0487 10.5826 -0.262871 0.389765 0.100582 
2338 1 9.52434 17.9904 10.5826 0.708733 1.25743 -1.08886 
2379 1 9.52434 19.0487 11.6409 0.510606 1.20086 0.297353 
2342 1 11.6409 17.9904 10.5826 0.00504269 0.215312 1.49608 
2344 1 10.5826 17.9904 11.6409 -0.550338 -2.31392 -1.35091 
2381 1 10.5826 19.0487 10.5826 -0.495951 -0.19599 1.22719 
2383 1 11.6409 19.0487 11.6409 -1.14161 -1.34775 0.703957 
2346 1 13.7574 17.9904 10.5826 0.6893 -0.765087 0.775806 
2348 1 12.6991 17.9904 11.6409 -0.534936 2.4716 -1.69071 
2385 1 12.6991 19.0487 10.5826 0.716687 0.47397 -0.403262 
2387 1 13.7574 19.0487 11.6409 -1.02274 0.469197 -0.082646 
2352 1 14.8156 17.9904 11.6409 0.974542 -2.03158 1.95688 
2389 1 14.8156 19.0487 10.5826 -0.129864 -2.23313 0.651237 
2350 1 15.8739 17.9904 10.5826 -0.0898775 0.214309 0.900306 
2356 1 16.9322 17.9904 11.6409 1.95107 -1.20117 0.23202 
2391 1 15.8739 19.0487 11.6409 -1.76626 -1.24493 -1.91081 
2393 1 16.9322 19.0487 10.5826 -1.72295 -0.69932 -0.664664 
2354 1 17.9904 17.9904 10.5826 -0.70329 0.593027 -0.521522 
2360 1 19.0487 17.9904 11.6409 0.623481 -0.686772 0.282636 
2395 1 17.9904 19.0487 11.6409 0.980207 -0.66875 -0.909705 
2397 1 19.0487 19.0487 10.5826 -0.342794 -1.19527 -1.01264 
2358 1 20.1069 17.9904 10.5826 -1.85768 -3.63858 -0.124041 
2399 1 20.1069 19.0487 11.6409 -0.331282 0.771448 -0.769988 
2362 1 1.05826 20.1069 10.5826 0.498599 -0.20384 -0.854725 
2364 1 0 20.1069 11.6409 -1.19606 -0.608995 0.659929 
2366 1 3.17478 20.1069 10.5826 2.45403 -0.319819 0.359183 
2368 1 2.11652 20.1069 11.6409 -1.51922 -0.310369 -1.1222 
2372 1 4.23304 20.1069 11.6409 0.9882 -1.31359 0.39088 
2370 1 5.2913 20.1069 10.5826 -1.35877 -0.519347 1.59733 
2376 1 6.34956 20.1069 11.6409 1.63146 0.138755 1.09166 
2374 1 7.40782 20.1069 10.5826 -1.89505 3.30249 1.61258 
2380 1 8.46608 20.1069 11.6409 0.374263 1.63531 2.51545 
2378 1 9.52434 20.1069 10.5826 -0.317518 2.5644 1.38971 
2382 1 11.6409 20.1069 10.5826 1.54655 -0.499643 -1.07179 
2384 1 10.5826 20.1069 11.6409 -0.651139 -2.28148 -0.679648 
2386 1 13.7574 20.1069 10.5826 0.925823 0.800535 0.321811 
2388 1 12.6991 20.1069 11.6409 0.516411 -0.203098 0.4338 
2392 1 14.8156 20.1069 11.6409 0.668447 0.142772 0.884363 
2390 1 15.8739 20.1069 10.5826 0.111568 0.360793 -0.758831 
2396 1 16.9322 20.1069 11.6409 -2.06112 0.990223 0.271779 
2394 1 17.9904 20.1069 10.5826 1.22601 1.09224 2.53128 
2400 1 19.0487 20.1069 11.6409 -0.475198 -1.90828 1.03399 
2398 1 20.1069 20.1069 10.5826 0.771798 0.456141 1.44628 
2644 1 0 13.7574 13.7574 1.19118 -0.116833 0.757666 
2648 1 2.11652 13.7574 13.7574 0.651934 -2.00268 1.82773 
2652 1 4.23304 13.7574 13.7574 -1.39131 0.984947 -0.257661 
2656 1 6.34956 13.7574 13.7574 -0.0166614 0.825001 0.636629 
2660 1 8.46608 13.7574 13.7574 -2.28814 -1.13578 0.640668 
2664 1 10.5826 13.7574 13.7574 -0.237695 -0.221505 2.48429 
2668 1 12.6991 13.7574 13.7574 1.15741 -1.83163 1.65664 
2672 1 14.8156 13.7574 13.7574 0.214568 0.369497 -1.46477 
2676 1 16.9322 13.7574 13.7574 -1.02214 0.324965 -1.62357 
2680 1 19.0487 13.7574 13.7574 -1.26513 -0.258253 -0.786584 
2681 1 0 14.8156 12.6991 1.75637 1.75661 1.25889 
2683 1 1.05826 14.8156 13.7574 1.70776 1.42065 -0.184579 
2685 1 2.11652 14.8156 12.6991 0.294213 -1.57959 -1.43402 
2687 1 3.17478 14.8156 13.7574 0.309472 -2.1541 1.48041 
2689 1 4.23304 14.8156 12.6991 0.267656 0.511758 -0.805289 
2691 1 5.2913 14.8156 13.7574 1.07978 -0.497539 1.23649 
2693 1 6.34956 14.8156 12.6991 -1.15177 -0.313312 1.34041 
2695 1 7.40782 14.8156 13.7574 -0.0955721 1.85934 -1.25181 
2697 1 8.46608 14.8156 12.6991 -0.129261 0.413445 -0.392315 
2699 1 9.52434 14.8156 13.7574 0.932969 0.457715 -0.670546 
2701 1 10.5826 14.8156 12.6991 2.58412 0.457963 -0.726007 
2703 1 11.6409 14.8156 13.7574 -1.19533 -0.677609 -0.722446 
2705 1 12.6991 14.8156 12.6991 -0.3436 -0.618625 -1.42113 
2707 1 13.7574 14.8156 13.7574 -1.0054 -0.904536 -0.688773 
2709 1 14.8156 14.8156 12.6991 -0.147959 -0.0912425 -0.141441 
2711 1 15.8739 14.8156 13.7574 0.31546 0.0269461 -0.334189 
2713 1 16.9322 14.8156 12.6991 0.308287 0.775889 1.22162 
2715 1 17.9904 14.8156 13.7574 0.492177 -0.461806 1.4279 
2717 1 19.0487 14.8156 12.6991 0.644266 0.511023 -0.286852 
2719 1 20.1069 14.8156 13.7574 0.704893 0.306792 -0.379266 
2682 1 1.05826 15.8739 12.6991 -1.7434 0.383886 0.870732 
2684 1 0 15.8739 13.7574 -1.66795 0.401527 0.220474 
2721 1 0 16.9322 12.6991 0.590338 2.13141 -0.185229 
2723 1 1.05826 16.9322 13.7574 0.926706 0.135161 2.63258 
2686 1 3.17478 15.8739 12.6991 0.548038 -0.69369 -0.556368 
2688 1 2.11652 15.8739 13.7574 -0.959232 -2.18913 0.16144 
2725 1 2.11652 16.9322 12.6991 -0.0766047 1.25889 -0.114152 
2727 1 3.17478 16.9322 13.7574 0.39472 0.84371 -1.0934 
2692 1 4.23304 15.8739 13.7574 0.222736 1.40275 -1.18012 
2729 1 4.23304 16.9322 12.6991 -0.11763 -2.31826 -0.549373 
2690 1 5.2913 15.8739 12.6991 1.67056 -0.506795 0.195926 
2696 1 6.34956 15.8739 13.7574 0.0803168 -0.411007 0.83575 
2731 1 5.2913 16.9322 13.7574 -0.297631 -0.250175 -0.119437 
2733 1 6.34956 16.9322 12.6991 1.02011 -0.322091 -1.76519 
2694 1 7.40782 15.8739 12.6991 1.17445 -2.9117 -0.70141 
2700 1 8.46608 15.8739 13.7574 -0.0846014 1.42625 -1.25661 
2735 1 7.40782 16.9322 13.7574 -0.897772 -1.45613 0.121468 
2737 1 8.46608 16.9322 12.6991 2.24207 -0.168804 -1.31658 
2698 1 9.52434 15.8739 12.6991 1.12237 0.293835 -0.667909 
2739 1 9.52434 16.9322 13.7574 0.409303 0.00148019 -1.41037 
2702 1 11.6409 15.8739 12.6991 -0.755652 0.177944 0.972818 
2704 1 10.5826 15.8739 13.7574 0.041901 -1.81743 2.85193 
2741 1 10.5826 16.9322 12.6991 -0.121931 0.475774 0.364952 
2743 1 11.6409 16.9322 13.7574 -0.810281 -1.12171 1.81169 
2706 1 13.7574 15.8739 12.6991 -1.98003 -2.38807 -0.877775 
2708 1 12.6991 15.8739 13.7574 -0.456529 -0.665062 -0.718881 
2745 1 12.6991 16.9322 12.6991 -0.190155 0.500642 0.562781 
2747 1 13.7574 16.9322 13.7574 0.048987 -0.208513 -0.724119 
2712 1 14.8156 15.8739 13.7574 0.811152 0.382158 -0.546876 
2749 1 14.8156 16.9322 12.6991 -2.22769 0.728769 0.530023 
2710 1 15.8739 15.8739 12.6991 2.47605 1.87938 3.4111 
2716 1 16.9322 15.8739 13.7574 2.0703 0.291437 -2.56979 
2751 1 15.8739 16.9322 13.7574 1.15353 -0.841078 1.3167 
2753 1 16.9322 16.9322 12.6991 3.00661 0.831678 2.07417 
2714 1 17.9904 15.8739 12.6991 -0.923024 -0.156255 -1.12819 
2720 1 19.0487 15.8739 13.7574 0.326758 1.42547 -2.15376 
2755 1 17.9904 16.9322 13.7574 -1.68508 0.32247 0.729481 
2757 1 19.0487 16.9322 12.6991 0.391858 -0.261457 1.77132 
2718 1 20.1069 15.8739 12.6991 0.0106204 1.50366 0.394282 
2759 1 20.1069 16.9322 13.7574 -1.00553 0.401825 0.176999 
2722 1 1.05826 17.9904 12.6991 0.912043 2.87703 0.291372 
2724 1 0 17.9904 13.7574 1.24612 1.23601 0.082226 
2761 1 0 19.0487 12.6991 2.34227 -0.693403 1.09051 
2763 1 1.05826 19.0487 13.7574 2.2813 1.65556 -1.26189 
2726 1 3.17478 17.9904 12.6991 0.74342 0.857433 -0.538815 
2728 1 2.11652 17.9904 13.7574 0.303982 -2.52265 -1.54336 
2765 1 2.11652 19.0487 12.6991 -1.70364 -0.857848 -0.804708 
2767 1 3.17478 19.0487 13.7574 -0.723189 -1.00366 1.952 
2732 1 4.23304 17.9904 13.7574 0.289708 -0.493211 -1.1451 
2769 1 4.23304 19.0487 12.6991 -0.135131 -0.785444 1.2221 
2730 1 5.2913 17.9904 12.6991 0.125398 -0.759193 -1.47033 
2736 1 6.34956 17.9904 13.7574 -0.066194 0.369953 -0.920476 
2771 1 5.2913 19.0487 13.7574 0.437419 -0.560818 0.549073 
2773 1 6.34956 19.0487 12.6991 2.21254 1.43883 -0.81194 
2734 1 7.40782 17.9904 12.6991 -0.269291 0.236231 0.142976 
2740 1 8.46608 17.9904 13.7574 0.344806 1.15761 2.71403 
2775 1 7.40782 19.0487 13.7574 -0.15679 2.10956 0.668284 
2777 1 8.46608 19.0487 12.6991 -0.407257 2.95209 -0.276042 
2738 1 9.52434 17.9904 12.6991 -0.566806 0.325788 1.03105 
2779 1 9.52434 19.0487 13.7574 2.36462 -1.5983 0.342943 
2742 1 11.6409 17.9904 12.6991 -0.423211 -1.68235 0.644239 
2744 1 10.5826 17.9904 13.7574 0.426412 1.01177 -1.61883 
2781 1 10.5826 19.0487 12.6991 1.46741 0.968896 -0.70545 
2783 1 11.6409 19.0487 13.7574 0.276214 2.72652 -0.42738 
2746 1 13.7574 17.9904 12.6991 -0.310013 0.526779 1.92553 
2748 1 12.6991 17.9904 13.7574 -1.95201 -0.418337 0.314238 
2785 1 12.6991 19.0487 12.6991 1.29273 0.378946 1.67665 
2787 1 13.7574 19.0487 13.7574 0.89507 -1.63509 1.27911 
2752 1 14.8156 17.9904 13.7574 -1.28618 -0.238384 -0.687789 
2789 1 14.8156 19.0487 12.6991 -1.5395 -1.06993 -2.07318 
2750 1 15.8739 17.9904 12.6991 -0.773319 -0.584279 -1.57645 
2756 1 16.9322 17.9904 13.7574 -2.90403 -0.305237 -0.430583 
2791 1 15.8739 19.0487 13.7574 -1.34966 0.592355 -0.247225 
2793 1 16.9322 19.0487 12.6991 -0.678882 1.43511 -1.10626 
2754 1 17.9904 17.9904 12.6991 -0.132558 1.33561 -1.16556 
2760 1 19.0487 17.9904 13.7574 -0.386209 -0.933672 -2.61666 
2795 1 17.9904 19.0487 13.7574 0.335253 -1.49359 -0.98353 
2797 1 19.0487 19.0487 12.6991 1.12926 -0.531906 1.31598 
2758 1 20.1069 17.9904 12.6991 0.58089 -0.223219 -0.0700054 
2799 1 20.1069 19.0487 13.7574 0.618279 0.0948451 -0.489732 
2762 1 1.05826 20.1069 12.6991 -2.23916 -0.0654233 -0.825699 
2764 1 0 20.1069 13.7574 0.309482 0.684088 0.80466 
2766 1 3.17478 20.1069 12.6991 -2.18017 0.969783 -0.673393 
2768 1 2.11652 20.1069 13.7574 -0.350533 2.46991 -0.735414 
2772 1 4.23304 20.1069 13.7574 1.99349 0.729032 1.27006 
2770 1 5.2913 20.1069 12.6991 -2.05706 -0.442347 0.264928 
2776 1 6.34956 20.1069 13.7574 -1.33646 1.73141 1.4102 
2774 1 7.40782 20.1069 12.6991 -0.772603 -2.39709 -0.623272 
2780 1 8.46608 20.1069 13.7574 1.22126 0.469248 -0.69912 
2778 1 9.52434 20.1069 12.6991 2.21476 -0.617083 -1.05306 
2782 1 11.6409 20.1069 12.6991 -1.07973 0.682804 -1.51372 
2784 1 10.5826 20.1069 13.7574 1.47628 -0.199835 0.499773 
2786 1 13.7574 20.1069 12.6991 -0.73481 -1.50471 0.165652 
2788 1 12.6991 20.1069 13.7574 1.7307 0.922327 -0.255048 
2792 1 14.8156 20.1069 13.7574 -1.47819 0.545602 -0.000579542 
2790 1 15.8739 20.1069 12.6991 0.530924 1.45433 0.0937469 
2796 1 16.9322 20.1069 13.7574 1.31805 -1.42101 -1.3703 
2794 1 17.9904 20.1069 12.6991 -0.959555 -0.135951 -0.84316 
2800 1 19.0487 20.1069 13.7574 -0.820086 1.19197 -1.76596 
2798 1 20.1069 20.1069 12.6991 0.299955 0.990181 -2.18852 
3041 1 0 12.6991 14.8156 0.248197 -0.135174 -1.31832 
3042 1 1.05826 13.7574 14.8156 -0.13973 0.772428 -0.969846 
3045 1 2.11652 12.6991 14.8156 -0.681863 -2.00817 0.810419 
3046 1 3.17478 13.7574 14.8156 -0.454324 1.39769 -1.40389 
3049 1 4.23304 12.6991 14.8156 -0.641002 -0.223269 -1.94358 
3050 1 5.2913 13.7574 14.8156 -1.48752 -0.150388 4.07196 
3053 1 6.34956 12.6991 14.8156 -0.264436 1.49919 1.404 
3054 1 7.40782 13.7574 14.8156 1.18564 -0.246142 0.703277 
3057 1 8.46608 12.6991 14.8156 0.984255 -0.795306 1.17549 
3058 1 9.52434 13.7574 14.8156 0.912143 0.800383 1.13157 
3061 1 10.5826 12.6991 14.8156 0.540988 -0.692496 -0.456463 
3062 1 11.6409 13.7574 14.8156 -0.808731 -2.19897 0.513513 
3065 1 12.6991 12.6991 14.8156 0.0887503 -2.62132 -0.254608 
3066 1 13.7574 13.7574 14.8156 0.618232 -0.0509624 -0.306177 
3069 1 14.8156 12.6991 14.8156 0.458883 2.66798 -0.159346 
3070 1 15.8739 13.7574 14.8156 1.39079 1.18688 -0.281215 
3073 1 16.9322 12.6991 14.8156 -0.883014 2.77402 0.935236 
3074 1 17.9904 13.7574 14.8156 -1.29952 -1.2394 -0.717143 
3077 1 19.0487 12.6991 14.8156 1.27101 -0.452512 -0.543262 
3078 1 20.1069 13.7574 14.8156 0.477558 0.240306 -1.30104 
3081 1 0 14.8156 14.8156 -1.05756 0.482787 -0.623509 
3085 1 2.11652 14.8156 14.8156 0.155982 -1.31236 0.785833 
3089 1 4.23304 14.8156 14.8156 -3.18589 2.07801 0.919847 
3093 1 6.34956 14.8156 14.8156 1.42348 -1.28002 -0.715855 
3097 1 8.46608 14.8156 14.8156 1.43265 1.37232 -0.0488674 
3101 1 10.5826 14.8156 14.8156 0.996651 0.523932 -1.32924 
3105 1 12.6991 14.8156 14.8156 0.0712438 2.71038 0.757359 
3109 1 14.8156 14.8156 14.8156 2.00781 0.94925 -0.168178 
3113 1 16.9322 14.8156 14.8156 0.00946863 -1.61275 -1.63204 
3117 1 19.0487 14.8156 14.8156 -0.988178 -0.669697 -1.47418 
3082 1 1.05826 15.8739 14.8156 0.0112788 -3.10737 0.565655 
3121 1 0 16.9322 14.8156 1.101 -2.39147 -2.23385 
3086 1 3.17478 15.8739 14.8156 0.860839 1.48569 0.169377 
3125 1 2.11652 16.9322 14.8156 0.277161 -1.8104 -1.61845 
3129 1 4.23304 16.9322 14.8156 -0.91879 -0.504816 -1.88946 
3090 1 5.2913 15.8739 14.8156 0.187772 -0.832373 -0.179442 
3133 1 6.34956 16.9322 14.8156 0.153812 -0.908998 -0.482688 
3094 1 7.40782 15.8739 14.8156 -1.11588 0.887846 0.456528 
3137 1 8.46608 16.9322 14.8156 0.893061 -0.248203 1.15802 
3098 1 9.52434 15.8739 14.8156 1.81836 -0.0891107 0.270819 
3102 1 11.6409 15.8739 14.8156 0.0360499 2.77958 0.501489 
3141 1 10.5826 16.9322 14.8156 2.55914 1.21225 -0.167863 
3106 1 13.7574 15.8739 14.8156 -0.357818 -0.0242195 0.173838 
3145 1 12.6991 16.9322 14.8156 0.476075 0.221483 0.333907 
3149 1 14.8156 16.9322 14.8156 0.433097 0.0992961 -0.0265746 
3110 1 15.8739 15.8739 14.8156 -0.631657 0.268837 -0.766718 
3153 1 16.9322 16.9322 14.8156 -1.88968 -1.59304 0.607087 
3114 1 17.9904 15.8739 14.8156 1.96958 0.481103 -0.294608 
3157 1 19.0487 16.9322 14.8156 -0.773562 0.827699 1.32588 
3118 1 20.1069 15.8739 14.8156 -1.23091 1.33407 1.33345 
3122 1 1.05826 17.9904 14.8156 -0.252224 0.366808 1.54517 
3161 1 0 19.0487 14.8156 -0.577292 -0.257912 1.76033 
3126 1 3.17478 17.9904 14.8156 -2.68217 1.6225 0.829118 
3165 1 2.11652 19.0487 14.8156 1.26836 -1.30222 0.64717 
3169 1 4.23304 19.0487 14.8156 -1.00269 -0.197931 -0.0910644 
3130 1 5.2913 17.9904 14.8156 -0.249999 -2.33054 2.5984 
3173 1 6.34956 19.0487 14.8156 -0.434016 -2.03045 -1.05341 
3134 1 7.40782 17.9904 14.8156 -2.06035 -1.69553 0.605699 
3177 1 8.46608 19.0487 14.8156 1.40422 -1.68789 1.38221 
3138 1 9.52434 17.9904 14.8156 -0.138268 1.51741 1.27343 
3142 1 11.6409 17.9904 14.8156 -2.069 0.688794 1.10739 
3181 1 10.5826 19.0487 14.8156 -0.62008 0.642538 0.815042 
3146 1 13.7574 17.9904 14.8156 0.60216 1.71694 -0.813918 
3185 1 12.6991 19.0487 14.8156 0.0604561 -0.41033 -0.922093 
3189 1 14.8156 19.0487 14.8156 -0.989009 1.08938 -0.414318 
3150 1 15.8739 17.9904 14.8156 0.720003 0.55147 -0.553631 
3193 1 16.9322 19.0487 14.8156 0.208619 0.876887 1.34869 
3154 1 17.9904 17.9904 14.8156 0.773396 -2.43742 2.16159 
3197 1 19.0487 19.0487 14.8156 -3.17266 1.14915 0.886266 
3158 1 20.1069 17.9904 14.8156 -0.00948792 0.721227 0.965472 
3162 1 1.05826 20.1069 14.8156 -2.04863 1.47032 1.83194 
3166 1 3.17478 20.1069 14.8156 -0.805687 1.76796 -0.984849 
3170 1 5.2913 20.1069 14.8156 1.0528 -1.28424 -0.666559 
3174 1 7.40782 20.1069 14.8156 -0.0534766 -0.572584 -1.45183 
3178 1 9.52434 20.1069 14.8156 -0.190514 0.383593 0.260657 
3182 1 11.6409 20.1069 14.8156 0.925361 0.284148 -0.870796 
3186 1 13.7574 20.1069 14.8156 -0.118394 1.81946 0.386107 
3190 1 15.8739 20.1069 14.8156 -1.11362 -1.80986 1.82645 
3194 1 17.9904 20.1069 14.8156 1.0498 1.23422 -0.50849 
3198 1 20.1069 20.1069 14.8156 0.378831 -0.415035 0.603359 
3004 1 0 11.6409 15.8739 0.955071 -0.071638 -0.897364 
3402 1 1.05826 11.6409 16.9322 -0.986294 -2.52387 0.730614 
3008 1 2.11652 11.6409 15.8739 0.288669 1.36978 -1.20233 
3406 1 3.17478 11.6409 16.9322 1.56294 -0.389293 -2.49402 
3012 1 4.23304 11.6409 15.8739 0.0295877 0.781522 2.01903 
3016 1 6.34956 11.6409 15.8739 -0.321872 -0.731475 -2.93082 
3410 1 5.2913 11.6409 16.9322 2.5545 0.693925 -0.274684 
3020 1 8.46608 11.6409 15.8739 -0.84537 -2.47643 0.324003 
3414 1 7.40782 11.6409 16.9322 0.530671 -0.778412 -1.06052 
3418 1 9.52434 11.6409 16.9322 1.85841 -1.67199 -0.658079 
3024 1 10.5826 11.6409 15.8739 1.7191 -0.928496 0.817208 
3422 1 11.6409 11.6409 16.9322 -0.0274211 1.09335 -2.49178 
3028 1 12.6991 11.6409 15.8739 -1.59549 0.433446 -0.736387 
3426 1 13.7574 11.6409 16.9322 1.6957 -1.04871 -0.54558 
3032 1 14.8156 11.6409 15.8739 -0.231971 -1.13306 -0.567251 
3036 1 16.9322 11.6409 15.8739 -1.09391 0.0633212 0.11536 
3430 1 15.8739 11.6409 16.9322 0.235729 0.374476 0.527606 
3040 1 19.0487 11.6409 15.8739 -1.35949 2.38278 -0.01233 
3434 1 17.9904 11.6409 16.9322 -1.30442 -1.39947 1.67588 
3438 1 20.1069 11.6409 16.9322 -0.324092 -1.11017 0.0990768 
3043 1 1.05826 12.6991 15.8739 -0.365982 0.685883 -3.05212 
3044 1 0 13.7574 15.8739 0.579466 1.77126 1.25975 
3441 1 0 12.6991 16.9322 0.000664042 -1.05389 -1.07423 
3442 1 1.05826 13.7574 16.9322 -1.03899 -0.809757 1.24717 
3047 1 3.17478 12.6991 15.8739 0.386728 0.898245 -0.173957 
3048 1 2.11652 13.7574 15.8739 1.68972 -1.10765 0.836292 
3445 1 2.11652 12.6991 16.9322 -0.803113 0.61557 -1.27232 
3446 1 3.17478 13.7574 16.9322 -0.787684 -0.148441 0.613994 
3052 1 4.23304 13.7574 15.8739 0.731328 -1.04942 -0.711708 
3449 1 4.23304 12.6991 16.9322 -1.76018 0.302456 0.931687 
3051 1 5.2913 12.6991 15.8739 0.996385 -0.644826 -0.3731 
3056 1 6.34956 13.7574 15.8739 -2.33112 -0.00349585 0.811638 
3450 1 5.2913 13.7574 16.9322 0.0509308 -0.600924 0.693077 
3453 1 6.34956 12.6991 16.9322 -0.398188 1.2981 -2.57069 
3055 1 7.40782 12.6991 15.8739 0.819458 -0.404464 -1.57587 
3060 1 8.46608 13.7574 15.8739 -1.14921 -0.382333 1.0212 
3454 1 7.40782 13.7574 16.9322 -1.57339 0.443859 -1.04974 
3457 1 8.46608 12.6991 16.9322 -0.589228 1.60372 -0.24352 
3059 1 9.52434 12.6991 15.8739 0.83124 0.954336 -0.0988584 
3458 1 9.52434 13.7574 16.9322 2.09358 0.122291 -3.07397 
3063 1 11.6409 12.6991 15.8739 -0.173198 1.79653 -1.36525 
3064 1 10.5826 13.7574 15.8739 2.83831 -0.948048 -0.339101 
3461 1 10.5826 12.6991 16.9322 0.878045 -0.734316 2.09357 
3462 1 11.6409 13.7574 16.9322 1.34103 -2.85738 -0.523721 
3067 1 13.7574 12.6991 15.8739 0.373212 -1.09624 1.30175 
3068 1 12.6991 13.7574 15.8739 2.32858 1.52472 1.25934 
3465 1 12.6991 12.6991 16.9322 -0.209399 2.68785 0.645096 
3466 1 13.7574 13.7574 16.9322 -0.82059 -1.10158 -1.25163 
3072 1 14.8156 13.7574 15.8739 1.17313 -0.0677163 -0.46232 
3469 1 14.8156 12.6991 16.9322 0.401128 0.548422 0.370622 
3071 1 15.8739 12.6991 15.8739 -2.35674 -1.27347 -0.446614 
3076 1 16.9322 13.7574 15.8739 -1.54908 1.36194 0.718471 
3470 1 15.8739 13.7574 16.9322 -0.0278785 -1.28265 0.127925 
3473 1 16.9322 12.6991 16.9322 1.15369 -0.589431 1.53097 
3075 1 17.9904 12.6991 15.8739 -0.235109 1.35887 -0.471359 
3080 1 19.0487 13.7574 15.8739 0.9305 -1.43957 -0.126336 
3474 1 17.9904 13.7574 16.9322 1.1911 -0.563793 1.48159 
3477 1 19.0487 12.6991 16.9322 1.08484 0.831464 1.28565 
3079 1 20.1069 12.6991 15.8739 0.0503555 -0.0292003 -0.445258 
3478 1 20.1069 13.7574 16.9322 -0.661698 -0.520553 -1.62475 
3083 1 1.05826 14.8156 15.8739 -2.24454 0.464256 -1.79318 
3481 1 0 14.8156 16.9322 -0.0773722 -0.807512 1.22454 
3087 1 3.17478 14.8156 15.8739 -0.592901 0.0482106 2.26036 
3485 1 2.11652 14.8156 16.9322 0.161464 -0.276183 -0.212629 
3489 1 4.23304 14.8156 16.9322 -1.00854 1.11694 -0.870555 
3091 1 5.2913 14.8156 15.8739 -0.403392 -0.922259 2.90666 
3493 1 6.34956 14.8156 16.9322 -1.05153 -1.21407 -0.014004 
3095 1 7.40782 14.8156 15.8739 -2.5155 -0.554736 -3.16058 
3497 1 8.46608 14.8156 16.9322 1.00951 3.2842 1.17032 
3099 1 9.52434 14.8156 15.8739 0.581208 1.8297 0.215649 
3103 1 11.6409 14.8156 15.8739 -2.37815 3.10426 0.898373 
3501 1 10.5826 14.8156 16.9322 1.7028 0.998624 -0.949624 
3107 1 13.7574 14.8156 15.8739 0.480749 -1.19655 1.24727 
3505 1 12.6991 14.8156 16.9322 -0.855305 -0.620972 -0.380993 
3509 1 14.8156 14.8156 16.9322 -0.0910711 0.274751 -0.683875 
3111 1 15.8739 14.8156 15.8739 0.988396 0.273729 -0.850497 
3513 1 16.9322 14.8156 16.9322 0.189471 1.5075 1.75048 
3115 1 17.9904 14.8156 15.8739 0.998568 2.71531 -0.470072 
3517 1 19.0487 14.8156 16.9322 -1.53196 0.401315 -0.0727255 
3119 1 20.1069 14.8156 15.8739 1.31434 1.96596 -0.655969 
3084 1 0 15.8739 15.8739 0.913489 -0.495281 0.666959 
3123 1 1.05826 16.9322 15.8739 0.703391 0.617469 -0.113956 
3482 1 1.05826 15.8739 16.9322 -1.06003 -1.03537 -0.45073 
3521 1 0 16.9322 16.9322 -0.86222 1.66575 1.59054 
3088 1 2.11652 15.8739 15.8739 -2.52429 -0.732844 0.387823 
3127 1 3.17478 16.9322 15.8739 -0.425015 -1.05662 -0.92571 
3486 1 3.17478 15.8739 16.9322 0.759938 0.394971 -1.06618 
3525 1 2.11652 16.9322 16.9322 -0.858745 -1.21303 -0.938339 
3092 1 4.23304 15.8739 15.8739 0.812292 1.25066 -0.631711 
3529 1 4.23304 16.9322 16.9322 1.39321 0.311288 2.63088 
3096 1 6.34956 15.8739 15.8739 -1.14965 0.895568 0.825349 
3131 1 5.2913 16.9322 15.8739 -0.212598 -1.79156 -0.564246 
3490 1 5.2913 15.8739 16.9322 1.42758 0.232104 1.12591 
3533 1 6.34956 16.9322 16.9322 0.781565 0.0939287 1.2953 
3100 1 8.46608 15.8739 15.8739 -0.0799195 -0.157408 -0.0821304 
3135 1 7.40782 16.9322 15.8739 -0.303491 0.647978 -0.381196 
3494 1 7.40782 15.8739 16.9322 -1.17957 -1.76133 0.717947 
3537 1 8.46608 16.9322 16.9322 -1.06906 0.613841 1.18004 
3139 1 9.52434 16.9322 15.8739 -1.34227 -2.2366 2.40209 
3498 1 9.52434 15.8739 16.9322 0.188475 -0.68724 -1.4629 
3104 1 10.5826 15.8739 15.8739 1.95533 -0.95629 0.306036 
3143 1 11.6409 16.9322 15.8739 -0.829017 0.0669977 1.45075 
3502 1 11.6409 15.8739 16.9322 0.714458 0.569571 -0.443438 
3541 1 10.5826 16.9322 16.9322 -1.15336 2.32824 -0.0309959 
3108 1 12.6991 15.8739 15.8739 0.98891 1.5665 -1.29131 
3147 1 13.7574 16.9322 15.8739 -0.244621 -0.298301 1.55896 
3506 1 13.7574 15.8739 16.9322 -0.678576 0.976772 -1.22692 
3545 1 12.6991 16.9322 16.9322 -0.434494 -0.214712 -1.69504 
3112 1 14.8156 15.8739 15.8739 -0.437204 1.68519 0.269534 
3549 1 14.8156 16.9322 16.9322 2.71574 -1.90228 -1.22937 
3116 1 16.9322 15.8739 15.8739 -1.56908 -0.0800136 0.0332335 
3151 1 15.8739 16.9322 15.8739 -1.26008 -1.07563 -1.09359 
3510 1 15.8739 15.8739 16.9322 -3.02823 -0.125432 0.636292 
3553 1 16.9322 16.9322 16.9322 -0.965108 -0.832971 -0.741088 
3120 1 19.0487 15.8739 15.8739 0.83851 -0.748599 -0.380776 
3155 1 17.9904 16.9322 15.8739 0.95271 -1.93159 -0.180793 
3514 1 17.9904 15.8739 16.9322 -0.366723 -0.821338 -0.517982 
3557 1 19.0487 16.9322 16.9322 -0.311945 0.434228 0.226002 
3159 1 20.1069 16.9322 15.8739 0.550215 0.132862 1.18787 
3518 1 20.1069 15.8739 16.9322 -0.29312 -0.0531872 1.67875 
3124 1 0 17.9904 15.8739 1.63196 -1.13323 -1.86169 
3163 1 1.05826 19.0487 15.8739 0.950112 -0.0485269 -0.900596 
3522 1 1.05826 17.9904 16.9322 -0.449663 -1.04684 0.392762 
3561 1 0 19.0487 16.9322 1.45793 1.56578 0.101953 
3128 1 2.11652 17.9904 15.8739 -1.58316 -1.26878 0.29119 
3167 1 3.17478 19.0487 15.8739 -2.28017 0.957499 -0.565387 
3526 1 3.17478 17.9904 16.9322 2.24334 -0.218298 -0.118837 
3565 1 2.11652 19.0487 16.9322 0.193733 -0.542916 0.597254 
3132 1 4.23304 17.9904 15.8739 -0.30129 1.63677 -0.873823 
3569 1 4.23304 19.0487 16.9322 -1.25586 -0.559759 1.67985 
3136 1 6.34956 17.9904 15.8739 0.0785799 0.999791 -0.625873 
3171 1 5.2913 19.0487 15.8739 0.166453 2.24948 -1.47194 
3530 1 5.2913 17.9904 16.9322 0.259147 1.23583 -1.3694 
3573 1 6.34956 19.0487 16.9322 0.533164 -1.24391 1.10908 
3140 1 8.46608 17.9904 15.8739 -1.33834 0.539631 0.26031 
3175 1 7.40782 19.0487 15.8739 0.460284 0.351104 -1.11799 
3534 1 7.40782 17.9904 16.9322 -0.78184 0.672776 -1.15065 
3577 1 8.46608 19.0487 16.9322 -0.307171 -1.59002 -0.931498 
3179 1 9.52434 19.0487 15.8739 0.0630714 0.461385 1.09597 
3538 1 9.52434 17.9904 16.9322 0.536759 -0.807015 0.368108 
3144 1 10.5826 17.9904 15.8739 -0.351768 0.246886 -0.813049 
3183 1 11.6409 19.0487 15.8739 -1.42025 1.28727 0.636985 
3542 1 11.6409 17.9904 16.9322 0.441713 -1.54047 0.877857 
3581 1 10.5826 19.0487 16.9322 -0.9688 0.851978 1.8172 
3148 1 12.6991 17.9904 15.8739 -1.90637 -0.259881 0.469095 
3187 1 13.7574 19.0487 15.8739 0.179735 -0.432827 -1.35693 
3546 1 13.7574 17.9904 16.9322 0.0584367 -1.11702 1.025 
3585 1 12.6991 19.0487 16.9322 0.284859 -0.610964 -2.67986 
3152 1 14.8156 17.9904 15.8739 2.02332 0.702384 0.507275 
3589 1 14.8156 19.0487 16.9322 -1.24555 -0.0694583 1.16269 
3156 1 16.9322 17.9904 15.8739 2.22892 0.437934 0.181902 
3191 1 15.8739 19.0487 15.8739 -1.55318 -2.2352 -1.47683 
3550 1 15.8739 17.9904 16.9322 0.291644 2.32014 -1.57816 
3593 1 16.9322 19.0487 16.9322 0.59569 0.965917 1.347 
3160 1 19.0487 17.9904 15.8739 0.294104 -0.502442 -0.376427 
3195 1 17.9904 19.0487 15.8739 1.95078 1.32764 2.16236 
3554 1 17.9904 17.9904 16.9322 1.31798 0.640954 0.193906 
3597 1 19.0487 19.0487 16.9322 1.00444 -2.01314 -2.81454 
3199 1 20.1069 19.0487 15.8739 -0.609556 -0.982088 -0.392968 
3558 1 20.1069 17.9904 16.9322 1.0828 2.51519 -2.15497 
3164 1 0 20.1069 15.8739 0.19612 0.37075 -0.965813 
3562 1 1.05826 20.1069 16.9322 -0.396762 -0.426935 -2.96656 
3168 1 2.11652 20.1069 15.8739 -0.0783052 0.19715 -2.41725 
3566 1 3.17478 20.1069 16.9322 1.94628 -0.732478 1.97388 
3172 1 4.23304 20.1069 15.8739 0.852355 -0.387588 2.32473 
3176 1 6.34956 20.1069 15.8739 1.07797 -2.37167 1.81442 
3570 1 5.2913 20.1069 16.9322 0.330723 0.431833 1.55808 
3180 1 8.46608 20.1069 15.8739 0.761204 -1.14048 -1.35803 
3574 1 7.40782 20.1069 16.9322 -1.5732 -1.64175 -0.449779 
3578 1 9.52434 20.1069 16.9322 0.81774 -0.057984 1.48801 
3184 1 10.5826 20.1069 15.8739 1.72461 -0.499586 0.232154 
3582 1 11.6409 20.1069 16.9322 -0.665624 -0.11367 1.12412 
3188 1 12.6991 20.1069 15.8739 -1.84416 0.530573 -0.51691 
3586 1 13.7574 20.1069 16.9322 0.580404 -0.775203 -0.801956 
3192 1 14.8156 20.1069 15.8739 -1.78646 3.96947 -0.536691 
3196 1 16.9322 20.1069 15.8739 0.476133 -0.295861 0.356507 
3590 1 15.8739 20.1069 16.9322 -0.0868595 1.51054 0.546218 
3200 1 19.0487 20.1069 15.8739 1.16183 1.25317 -0.267159 
3594 1 17.9904 20.1069 16.9322 0.727224 -3.25272 -0.356997 
3598 1 20.1069 20.1069 16.9322 -0.383945 -1.83906 0.422084 
3403 1 1.05826 10.5826 17.9904 1.76101 0.884183 0.397405 
3404 1 0 11.6409 17.9904 1.2279 0.0205294 0.914404 
3801 1 0 10.5826 19.0487 -1.22932 -0.621913 0.731595 
3802 1 1.05826 11.6409 19.0487 -2.16466 -2.47594 0.951451 
3407 1 3.17478 10.5826 17.9904 -0.0554568 0.591427 0.204057 
3408 1 2.11652 11.6409 17.9904 1.51649 -2.4666 0.38657 
3805 1 2.11652 10.5826 19.0487 -0.794012 -0.902806 0.353257 
3806 1 3.17478 11.6409 19.0487 -0.880872 -0.421726 -1.54582 
3412 1 4.23304 11.6409 17.9904 1.69119 -0.273412 0.870611 
3809 1 4.23304 10.5826 19.0487 -0.575825 -1.02413 0.914195 
3411 1 5.2913 10.5826 17.9904 1.31249 -0.941011 -1.02671 
3416 1 6.34956 11.6409 17.9904 -1.08467 -0.698594 -0.327689 
3810 1 5.2913 11.6409 19.0487 -0.492107 -0.203052 -0.508552 
3813 1 6.34956 10.5826 19.0487 1.6745 -0.262765 1.10329 
3415 1 7.40782 10.5826 17.9904 -1.99891 -0.13434 1.21304 
3420 1 8.46608 11.6409 17.9904 -1.5603 1.32399 -3.14803 
3814 1 7.40782 11.6409 19.0487 -0.555735 -2.25634 -1.50639 
3817 1 8.46608 10.5826 19.0487 2.09491 0.34493 2.20573 
3419 1 9.52434 10.5826 17.9904 -0.772851 -2.1007 0.559412 
3818 1 9.52434 11.6409 19.0487 1.43504 0.329408 1.12709 
3423 1 11.6409 10.5826 17.9904 0.480392 -0.216818 -2.9493 
3424 1 10.5826 11.6409 17.9904 2.61449 -0.730263 1.05105 
3821 1 10.5826 10.5826 19.0487 -1.00993 0.897149 0.142877 
3822 1 11.6409 11.6409 19.0487 1.20597 -2.07937 -1.17947 
3427 1 13.7574 10.5826 17.9904 0.0990041 -0.688229 1.11682 
3428 1 12.6991 11.6409 17.9904 0.434728 0.0630035 0.925387 
3825 1 12.6991 10.5826 19.0487 -1.36253 -0.752525 2.52691 
3826 1 13.7574 11.6409 19.0487 -0.403144 0.26388 -0.49002 
3432 1 14.8156 11.6409 17.9904 -1.30421 -1.16889 2.03594 
3829 1 14.8156 10.5826 19.0487 0.218663 -0.472427 -0.284717 
3431 1 15.8739 10.5826 17.9904 0.527893 0.0724155 -1.52163 
3436 1 16.9322 11.6409 17.9904 -0.977771 0.0171189 -0.358699 
3830 1 15.8739 11.6409 19.0487 -2.16511 0.153769 2.3309 
3833 1 16.9322 10.5826 19.0487 -1.76603 1.43595 0.608698 
3435 1 17.9904 10.5826 17.9904 -1.87875 -0.558158 -0.48494 
3440 1 19.0487 11.6409 17.9904 0.67141 0.796823 -0.523932 