ITEM: TIMESTEP
0
ITEM: NUMBER OF ATOMS
13954
ITEM: BOX BOUNDS pp pp pp
0.0000000000000000e+00 4.2330393705159501e+01
0.0000000000000000e+00 4.2330393705159501e+01
0.0000000000000000e+00 4.2330393705159501e+01
ITEM: ATOMS id type c_stress[1] c_stress[2] c_stress[3] 
1 1 1.93911 4.00569 0.756732 
2 1 2.39712 3.0853 3.1343 
3 1 2.47927 3.81448 -8.63509 
4 1 -1.57849 3.67349 -2.17986 
5 1 3.8982 3.66894 3.5294 
6 1 3.18823 3.04252 4.05016 
7 1 4.14273 3.94737 4.09999 
8 1 3.67119 4.14142 3.6976 
9 1 1.71692 4.15317 1.96385 
12 1 3.01856 4.15019 3.16065 
10 1 2.33288 2.9235 3.97842 
11 1 3.91163 3.29878 4.09355 
13 1 -0.265341 2.76072 2.67639 
16 1 3.9029 4.06303 2.83837 
14 1 3.91468 4.12124 3.91662 
15 1 3.95943 0.326455 4.03773 
17 1 3.69455 3.80304 3.0659 
20 1 4.13708 1.23295 1.40179 
18 1 4.07987 2.25666 3.22744 
19 1 2.65637 1.52397 3.41263 
21 1 4.11575 4.10125 2.5513 
22 1 2.56259 4.14696 3.70619 
23 1 3.57201 3.78085 2.26793 
24 1 4.08192 1.65635 3.84538 
25 1 2.83068 0.628618 2.01629 
26 1 2.0352 -0.40067 3.102 
27 1 4.08983 3.90188 0.443275 
28 1 2.97596 4.1138 4.14666 
29 1 4.03041 2.87987 3.6093 
32 1 4.08091 3.80392 4.13754 
30 1 4.00227 4.07506 3.32049 
31 1 3.6839 1.91566 3.30696 
33 1 4.12413 4.11971 3.84855 
36 1 0.713709 4.14423 4.019 
34 1 4.14683 0.68183 3.89987 
35 1 1.68642 0.928068 3.90694 
37 1 3.93926 4.08042 2.79272 
40 1 3.46605 3.68751 3.21002 
38 1 1.86113 3.47756 4.10664 
39 1 0.396989 1.77255 3.39844 
41 1 2.76343 -1.35708 3.14637 
42 1 3.8019 4.11061 4.1096 
43 1 4.08764 4.07625 3.89984 
44 1 4.11205 4.09506 1.8827 
45 1 3.74846 -6.60067 3.4021 
46 1 3.8173 3.67633 3.88797 
47 1 4.15319 4.13481 3.71172 
48 1 0.0427992 2.6758 -0.341711 
49 1 4.07246 2.76182 3.74679 
52 1 3.86149 4.02777 4.11899 
50 1 2.85591 3.17833 3.93348 
51 1 0.991551 2.04518 2.48044 
53 1 4.01658 -0.122112 2.20228 
56 1 3.85563 4.15291 4.13049 
54 1 4.09987 3.78639 2.27863 
55 1 0.32825 3.6692 4.07602 
57 1 4.10327 3.55771 3.66698 
60 1 4.1272 4.11543 3.82644 
58 1 3.09752 3.11512 2.52033 
59 1 3.26352 4.03255 1.47686 
61 1 2.2855 3.97431 4.06821 
62 1 1.92239 4.08363 3.70398 
63 1 4.0364 -2.47203 -0.475102 
64 1 2.67828 3.01651 4.15251 
65 1 3.61954 4.09058 2.87978 
66 1 3.72366 3.23091 4.11317 
67 1 2.72664 2.42798 4.01819 
68 1 3.61017 2.43058 3.31152 
69 1 2.95297 -3.23179 0.961224 
72 1 3.7942 -0.694387 1.64059 
70 1 3.21784 -1.52988 3.83841 
71 1 4.08518 2.12602 3.65064 
73 1 3.95029 4.08181 -0.517556 
76 1 -5.13495 3.79694 3.84181 
74 1 3.0349 -1.74245 4.13294 
75 1 4.14583 -1.71121 3.50801 
77 1 0.893524 4.12825 -0.272632 
80 1 3.55795 4.13464 0.217738 
78 1 1.65604 4.09167 3.74406 
79 1 3.15412 4.03259 0.221963 
81 1 0.37463 3.87741 3.06246 
83 1 4.03007 4.06733 3.93874 
85 1 4.12484 4.06348 4.07797 
87 1 4.05497 3.33368 4.13965 
89 1 -1.14631 0.94073 3.99698 
91 1 3.35262 4.13281 2.96513 
93 1 1.98802 3.88844 -2.96238 
95 1 1.03614 3.97904 2.17775 
97 1 3.73359 3.86695 3.74167 
99 1 3.56067 4.13162 -5.77632 
101 1 3.41928 3.71412 -2.04581 
103 1 4.13931 4.09558 4.05644 
105 1 4.13948 4.13735 4.14229 
107 1 3.91018 3.80958 2.55042 
109 1 -0.551045 4.10947 3.78003 
111 1 1.42082 3.95137 2.5233 
113 1 3.02589 0.126045 3.88307 
115 1 4.12882 4.14984 4.14963 
117 1 3.50352 4.15329 4.11323 
119 1 3.56696 3.92868 3.99989 
82 1 3.27115 3.96594 2.96362 
84 1 2.70446 4.15189 4.1051 
121 1 3.08414 3.55332 3.79761 
123 1 3.96984 0.0563071 4.03508 
86 1 4.14148 4.09162 3.45584 
88 1 4.10549 1.97343 3.14466 
125 1 3.41098 3.8515 2.89239 
127 1 4.1076 4.14639 4.13857 
92 1 2.61213 -0.688434 3.90764 
129 1 3.99223 4.01056 -7.15641 
90 1 2.92762 4.14129 3.22022 
96 1 3.15917 4.02571 4.14331 
131 1 2.1394 4.14142 3.56205 
133 1 2.6097 4.02814 -1.38832 
94 1 1.11474 3.03746 4.09581 
100 1 2.82175 0.118532 4.15125 
135 1 4.15188 3.31666 3.82097 
137 1 4.15186 1.90774 2.78081 
98 1 3.71308 4.13909 4.15324 
139 1 3.58555 4.04556 3.42054 
102 1 3.56669 3.44886 3.36347 
104 1 2.93424 3.56922 4.14759 
141 1 2.02416 3.84513 3.29855 
143 1 3.03295 4.0146 -2.29706 
106 1 2.1883 0.872378 4.13292 
108 1 4.06191 2.36334 4.12557 
145 1 4.11474 1.85755 4.1474 
147 1 2.93977 0.0288036 3.74166 
112 1 3.47687 4.08385 -0.0584528 
149 1 2.07175 0.444553 2.65218 
110 1 3.03133 3.86895 1.12013 
116 1 4.1002 3.33653 1.19827 
151 1 3.83944 4.14483 2.99732 
153 1 3.41274 4.15319 0.18962 
114 1 -1.65002 4.14284 2.15172 
120 1 3.54396 -3.32489 4.15081 
155 1 4.13564 -2.28468 3.02669 
157 1 2.90671 2.66861 3.46637 
118 1 4.04201 3.81516 1.72214 
122 1 1.89607 3.27298 2.22113 
124 1 3.93181 3.21427 -1.47198 
161 1 2.5376 3.77832 4.11227 
163 1 4.06269 4.12745 3.24739 
126 1 3.3672 3.06159 3.81086 
128 1 3.18003 2.1316 0.787098 
165 1 0.392353 4.06687 0.471417 
167 1 3.50687 2.04065 3.83454 
132 1 4.14324 4.14142 3.33881 
169 1 4.06999 2.09576 4.11861 
130 1 2.59285 4.13209 3.96773 
134 1 -0.413364 3.22306 2.83014 
138 1 0.567321 4.08199 4.1511 
142 1 4.14061 3.02781 3.41783 
146 1 0.607737 3.86868 3.98849 
148 1 0.477141 3.98399 2.56413 
185 1 4.15041 2.54525 2.94344 
187 1 4.03479 2.96069 1.71382 
152 1 -1.1018 4.14865 3.98379 
189 1 4.10572 -4.06597 4.03181 
150 1 3.92175 3.68004 3.78646 
162 1 4.04888 3.42309 1.83316 
164 1 3.24892 2.26268 3.43689 
166 1 2.58893 4.08441 4.11828 
168 1 3.89443 3.66175 2.42972 
186 1 -14.211 2.00713 4.15254 
192 1 3.9739 3.95381 4.11474 
201 1 3.78766 1.04194 1.40418 
202 1 4.06227 -0.515473 4.15242 
203 1 3.40638 2.47975 2.84417 
204 1 3.1066 3.87118 1.97672 
205 1 3.40621 4.15308 2.20097 
229 1 3.22541 1.01363 -0.679616 
241 1 -3.42878 4.11638 3.45708 
242 1 3.84077 3.70517 3.20628 
244 1 3.51045 3.74992 4.11349 
281 1 2.40534 2.61662 2.39707 
282 1 -2.95704 4.13589 2.89453 
284 1 4.03291 3.97558 3.52771 
321 1 3.25914 4.15271 3.87963 
322 1 1.21049 3.86701 -0.807594 
324 1 2.57672 1.52796 3.8756 
361 1 4.1437 -2.27499 -0.0252264 
363 1 3.96744 4.09719 2.66258 
365 1 3.89789 3.43193 2.84636 
389 1 3.50811 4.12574 -9.98938 
350 1 3.93369 3.60905 1.93085 
391 1 1.35295 1.56976 3.99502 
393 1 2.85334 4.15054 2.54845 
362 1 4.06472 3.90078 3.96585 
364 1 2.34459 3.95828 4.15269 
366 1 -0.194783 0.338762 4.15225 
368 1 0.668737 3.25597 4.04196 
386 1 -4.0155 2.21253 2.90648 
390 1 0.545477 2.35915 1.6795 
396 1 3.87941 3.83176 3.88281 
394 1 3.49212 4.13951 4.03467 
400 1 3.53074 3.36959 2.01624 
398 1 -2.56811 3.92095 4.07963 
401 1 1.76855 3.97258 4.15027 
402 1 2.96564 3.37634 1.99283 
403 1 4.04789 3.59999 2.72714 
404 1 4.11619 0.0276189 3.38436 
405 1 -0.928109 3.93016 4.15157 
406 1 2.20554 4.15323 0.586008 
407 1 3.73441 3.98889 -1.8099 
408 1 4.13005 3.8242 2.26247 
409 1 4.00816 3.1445 0.849133 
412 1 3.83718 2.81836 2.27531 
410 1 3.86591 4.08012 3.92212 
411 1 3.17078 3.44751 4.06061 
413 1 4.12424 3.45024 3.66499 
416 1 1.88181 4.15111 4.03654 
414 1 2.63281 2.49476 0.0920424 
415 1 4.13131 4.01019 3.94614 
417 1 3.72383 4.13795 -0.0349724 
420 1 4.13655 2.6107 3.32915 
418 1 4.13469 2.38578 2.57151 
419 1 4.153 4.14625 3.67909 
421 1 -4.68928 3.11447 3.85933 
422 1 3.55894 4.00083 0.78625 
423 1 3.23857 2.86896 1.36492 
424 1 3.48464 4.10555 4.13715 
425 1 -1.16232 2.9945 1.52229 
426 1 4.13092 0.406301 3.05715 
427 1 0.705915 4.01821 2.53479 
428 1 -0.177349 2.06197 4.02706 
429 1 3.98051 3.05723 4.14775 
432 1 -0.189154 2.00646 3.68797 
430 1 2.23759 1.63405 3.16829 
431 1 3.68132 3.61526 1.05695 
433 1 1.17227 -2.87279 3.65563 
436 1 2.02889 3.7903 1.33134 
434 1 -1.27937 3.72452 3.65838 
435 1 4.1478 -0.121004 3.00926 
437 1 3.72845 2.89526 -2.97366 
440 1 2.10308 3.52491 4.11981 
438 1 -1.60971 0.329032 3.83769 
439 1 2.29422 1.84327 -0.28846 
441 1 3.7004 3.95241 2.42052 
442 1 3.87367 2.327 -1.05252 
443 1 1.74949 2.70304 -0.271698 
444 1 3.59331 4.15142 3.94561 
445 1 4.08587 1.00844 3.96511 
446 1 3.16218 4.10509 2.99846 
447 1 -0.292614 4.07458 3.5241 
448 1 -0.0568465 4.09305 4.07843 
449 1 -0.585457 -0.97942 -2.43855 
452 1 -0.216663 3.465 2.05423 
450 1 3.83131 2.93682 4.04002 
451 1 -0.266712 4.09163 3.39444 
453 1 1.54918 2.84871 4.15203 
456 1 3.59274 3.67942 4.15188 
454 1 3.23726 3.507 3.40136 
455 1 4.10328 4.14706 4.15212 
457 1 1.76942 4.09891 3.14543 
460 1 2.06396 4.14189 3.7433 
458 1 3.65188 3.1516 4.10963 
459 1 4.15323 3.66374 -0.21092 
461 1 -2.08968 4.13443 2.32348 
462 1 4.10475 4.05236 3.29577 
463 1 2.98892 2.41342 3.13997 
464 1 3.95647 2.9671 0.887641 
465 1 1.87049 3.17499 3.20761 
466 1 3.32657 0.824397 4.1407 
467 1 2.21068 3.96338 2.65839 
468 1 3.24913 3.89564 -2.37468 
469 1 -2.09409 0.199104 2.09778 
472 1 3.82559 -1.9471 1.6833 
470 1 2.36505 -1.98372 -4.83224 
471 1 4.15318 3.91139 3.61867 
473 1 4.15077 3.06976 4.14994 
476 1 3.45351 2.28681 1.06418 
474 1 1.7202 4.15198 4.14455 
475 1 4.15194 3.5684 4.11467 
477 1 3.32506 4.07469 2.36369 
480 1 0.457299 3.70674 4.09412 
478 1 4.14931 -4.22253 3.95574 
479 1 -0.341683 2.40778 3.66003 
481 1 3.25597 4.14257 -0.881454 
483 1 3.73043 2.96339 4.15173 
485 1 0.794008 4.12658 3.96809 
487 1 3.87891 1.14748 2.99294 
489 1 2.84502 4.10862 4.00375 
491 1 -3.34373 3.77864 2.70486 
493 1 0.742196 4.13198 4.13336 
495 1 2.25521 2.31281 3.98705 
497 1 0.834125 3.64189 3.80477 
499 1 4.00386 3.48416 -1.45271 
501 1 3.98865 -1.12308 1.9749 
503 1 4.15201 1.30431 4.05488 
505 1 2.29206 3.41149 3.28977 
507 1 4.1145 3.40834 3.93127 
509 1 3.95549 4.14564 2.46147 
511 1 4.01408 3.96657 -0.178784 
513 1 0.953834 3.03453 3.96539 
515 1 2.32301 3.608 4.04877 
517 1 3.34293 -2.14263 4.13008 
519 1 3.99524 3.91478 3.53649 
482 1 2.36623 4.06005 -2.21013 
484 1 2.04829 2.15401 3.94686 
521 1 3.28204 1.00796 3.9977 
523 1 3.53593 4.05807 3.81583 
486 1 2.66642 -0.203848 3.04681 
488 1 2.80974 -6.08507 1.8342 
525 1 2.42324 4.14019 2.5807 
527 1 4.08544 4.1523 3.83783 
492 1 4.06708 1.93999 3.96009 
529 1 3.98587 4.08241 3.2997 
490 1 4.13479 3.9623 2.85706 
496 1 3.96079 2.76862 2.11921 
533 1 3.04962 4.12008 4.13953 
494 1 3.87046 -0.406194 1.86116 
500 1 4.10554 4.15185 3.55511 
498 1 -0.132546 2.7381 3.41656 
502 1 4.1235 0.114722 3.69378 
504 1 3.9302 2.07487 3.49319 
506 1 3.88248 3.64932 3.63705 
508 1 3.45353 4.03276 4.12744 
545 1 3.69661 2.78439 2.2012 
547 1 3.97572 4.08201 3.57463 
512 1 3.94815 4.12842 2.37644 
549 1 1.62122 3.81652 4.09327 
510 1 3.87923 3.34191 4.11729 
516 1 4.09311 -7.02766 -0.374898 
551 1 4.05001 3.40445 2.42348 
553 1 1.38247 4.13287 3.31731 
514 1 2.64392 4.03156 -0.219348 
520 1 4.11106 3.86711 1.57806 
518 1 1.73298 4.08924 3.50806 
522 1 3.69807 0.839393 0.788549 
524 1 2.09972 0.846024 3.08054 
561 1 1.69017 1.14124 2.9021 
563 1 3.99974 1.64814 -2.57298 
526 1 3.64392 2.65977 -0.537421 
528 1 3.99439 3.61791 3.25481 
565 1 -3.52244 2.267 4.13419 
546 1 2.92513 1.99883 3.49951 
552 1 3.09154 4.11258 3.19977 
589 1 -2.18813 0.43741 2.51878 
550 1 -1.1782 3.97671 4.13501 
562 1 4.04575 4.06846 3.25933 
564 1 2.98746 3.92126 3.07985 
601 1 2.39456 1.37693 3.52635 
761 1 -11.8572 3.68878 -0.302906 
793 1 2.55048 3.60158 4.1149 
762 1 2.31178 3.69491 3.02641 
764 1 4.01784 -1.53633 4.04939 
794 1 2.63538 4.11083 4.15159 
800 1 3.72476 4.00566 3.94658 
798 1 3.75417 -1.51061 4.12716 
801 1 2.25086 3.80632 3.97537 
802 1 2.42908 1.78286 -6.00684 
805 1 2.90418 2.57578 3.05821 
806 1 4.15254 4.05261 4.12853 
809 1 0.48227 4.14929 3.61534 
810 1 -0.130469 3.13776 3.85851 
813 1 0.741484 0.328415 -0.858664 
814 1 3.4065 3.10154 1.37368 
817 1 1.53991 4.0108 1.47301 
818 1 3.6581 2.41276 4.10659 
821 1 2.49871 3.88182 3.82968 
822 1 4.07238 3.85793 2.80962 
825 1 3.88968 3.35022 3.83496 
826 1 3.58295 3.83692 -1.18659 
829 1 2.51609 3.73641 3.24441 
830 1 -3.22377 4.15321 4.02027 
833 1 4.06871 2.60655 1.48755 
834 1 3.42835 2.35252 2.96251 
837 1 1.08132 4.12952 0.610537 
838 1 -6.24848 2.91581 3.95287 
841 1 4.14591 3.96309 3.42814 
842 1 -2.92482 -3.22862 2.61063 
845 1 4.15302 1.57779 3.91079 
846 1 3.21098 1.65321 -0.77614 
849 1 4.15126 3.98284 -2.16235 
850 1 -1.64086 0.950807 3.70034 
853 1 2.23309 4.1497 3.9365 
854 1 3.99825 4.13643 4.14867 
857 1 4.09824 4.07704 2.96204 
858 1 4.14577 3.14206 4.10021 
861 1 4.09716 3.3756 3.65105 
862 1 4.02652 4.01356 3.83066 
865 1 3.81458 4.07371 2.95053 
866 1 3.95558 -0.309379 4.11464 
869 1 4.15327 4.04019 4.14187 
870 1 3.72975 3.72371 4.12885 
873 1 2.94017 3.38821 4.09206 
874 1 3.12313 2.61494 3.87585 
877 1 1.55874 2.01701 3.92998 
878 1 1.36661 -1.07051 3.97505 
881 1 -0.833691 2.81046 -0.260221 
885 1 4.05289 4.11582 1.96551 
889 1 3.9463 3.81714 4.14056 
893 1 1.45365 3.58557 -1.31248 
897 1 3.51348 3.65391 4.15317 
901 1 4.11086 1.76681 4.00487 
905 1 -1.67429 -1.55183 3.64619 
909 1 1.19817 1.58422 2.92715 
913 1 0.429091 4.13515 3.44731 
917 1 2.79792 4.06939 3.98175 
882 1 -1.15209 1.49115 3.97707 
921 1 4.00613 2.18859 3.72871 
886 1 3.62003 3.49019 -1.97831 
925 1 -0.0951088 1.20606 3.8871 
890 1 4.12593 4.06059 4.15311 
902 1 3.60404 4.15289 -3.03997 
906 1 3.83543 -3.77553 3.69215 
949 1 2.24141 2.54043 1.42974 
910 1 4.15065 2.93293 1.7694 
953 1 3.66256 4.15258 2.75569 
914 1 3.97244 0.131228 4.11536 
918 1 3.62121 -2.72162 -0.371956 
922 1 4.12237 4.15316 4.1507 
961 1 0.168327 3.30648 4.15203 
950 1 1.92881 3.45492 3.76383 
1194 1 4.137 3.14444 -2.41854 
803 1 3.39042 3.06597 4.04775 
804 1 3.49183 4.08106 2.32744 
1201 1 4.06249 -0.851293 3.44079 
1202 1 3.33556 -0.279275 -0.362207 
807 1 1.16693 3.55996 -4.8295 
808 1 -2.03382 4.00715 2.6683 
1205 1 0.137563 2.67231 4.11774 
1206 1 3.77745 4.13178 3.90526 
812 1 3.98689 4.15279 4.12711 
1209 1 2.68643 4.15271 1.8479 
811 1 4.08361 0.332122 3.12844 
816 1 2.18801 3.22852 4.1525 
1210 1 2.06379 3.23147 3.62572 
1213 1 3.35518 3.14138 3.10124 
815 1 1.91216 4.07816 0.0403036 
820 1 1.53564 3.37826 2.34334 
1214 1 3.82792 3.6107 -2.79109 
1217 1 2.38188 4.13367 4.1533 
819 1 3.79355 -3.06359 4.1009 
1218 1 3.63492 2.16992 2.58869 
823 1 3.93486 3.98358 3.78436 
824 1 3.05052 4.03647 3.93007 
1221 1 4.02787 0.200826 0.951093 
1222 1 1.81018 2.82058 4.12325 
827 1 4.13652 3.69269 3.42669 
828 1 -2.45721 2.77762 3.61454 
1225 1 1.87912 3.95312 2.58906 
1226 1 2.97802 -6.092 3.43207 
832 1 4.13326 3.04544 0.874225 
1229 1 4.12128 0.543065 4.13135 
831 1 0.715131 3.72967 3.9145 
836 1 3.96906 3.98713 2.69904 
1230 1 1.95705 3.53964 4.14041 
1233 1 3.87673 4.1532 1.8649 
835 1 -0.105557 -0.335027 1.42335 
840 1 3.7394 4.09043 3.93831 
1234 1 4.11679 4.07521 4.15238 
1237 1 4.01241 4.13708 4.1526 
839 1 4.12499 1.88556 3.79902 
1238 1 3.52304 3.73382 -0.165955 
843 1 3.60752 4.09833 1.00097 
844 1 3.51727 4.14359 4.07947 
1241 1 4.14597 3.25156 3.64216 
1242 1 3.75915 -1.26517 4.12731 
847 1 3.4332 3.75061 2.25443 
848 1 3.38852 4.15089 2.38512 
1245 1 3.06706 0.899795 -0.287701 
1246 1 1.95397 3.70398 3.28859 
852 1 3.32161 2.91331 3.27076 
1249 1 -1.53396 3.98863 3.89773 
851 1 3.79038 1.14016 4.07204 
856 1 3.53299 2.81198 2.52335 
1250 1 2.81962 4.04924 3.87214 
1253 1 4.15129 3.96471 1.09849 
855 1 1.75337 4.13594 1.19924 
860 1 3.86541 4.15088 4.05253 
1254 1 0.251041 3.12515 4.15286 
1257 1 4.14665 1.52103 3.02994 
859 1 -6.66685 3.63918 3.8451 
1258 1 4.10769 3.55819 3.35952 
863 1 3.96417 3.05056 1.86646 
864 1 3.67324 3.20449 1.47546 
1261 1 4.13365 3.7656 3.52985 
1262 1 3.02575 3.71223 -1.43721 
867 1 2.95949 4.12816 4.01942 
868 1 3.83331 4.10736 3.91096 
1265 1 4.11748 2.39526 4.1413 
1266 1 1.73399 3.97494 3.39518 
872 1 3.37684 4.1472 3.33166 
1269 1 3.9047 3.27147 4.15325 
871 1 -8.21852 -3.26527 3.47046 
876 1 2.48535 4.12263 3.83633 
1270 1 3.49007 4.14763 2.81979 
1273 1 3.74725 3.80928 2.75984 
875 1 3.16897 3.95349 3.18589 
880 1 0.437278 3.05 4.0161 
1274 1 1.06013 1.4555 2.32166 
1277 1 3.49916 4.15168 3.61681 
879 1 3.94391 -2.99124 2.91375 
1278 1 3.80938 3.45868 4.1053 
883 1 2.76363 3.94468 4.03152 
1281 1 2.6315 4.09005 4.01942 
887 1 3.4229 4.06207 2.0295 
1285 1 4.02098 4.14188 4.00908 
1289 1 3.91268 4.1533 1.43332 
891 1 4.15028 -3.12502 0.484185 
1293 1 -1.09662 4.00816 3.81155 
895 1 3.70624 1.9856 4.1508 
899 1 4.14504 4.15274 4.15259 
903 1 2.58975 3.80302 1.63019 
1301 1 -2.40081 0.423343 4.12772 
907 1 3.44805 3.33607 4.15155 
1305 1 3.0938 2.1378 1.94102 
1309 1 3.94971 4.12082 -1.74565 
911 1 4.09005 3.99006 3.93263 
1313 1 3.20356 3.54174 3.99911 
915 1 3.94221 3.72853 3.37849 
1317 1 4.12939 4.07983 4.14925 
919 1 3.73246 4.00391 1.71429 
884 1 1.59807 4.15327 2.90684 
923 1 3.79398 3.73686 4.1383 
1282 1 2.99497 3.90058 3.10211 
1321 1 -3.39364 3.40199 4.14185 
888 1 3.78754 3.10048 4.12766 
1286 1 4.00384 4.14483 4.15289 
1325 1 4.14711 4.14574 2.00944 
892 1 -0.996619 3.66311 1.01716 
908 1 4.14144 2.26743 1.34742 
1306 1 4.12691 2.05374 -5.63504 
912 1 4.1286 0.922692 4.07347 
916 1 2.35692 2.6798 3.88843 
951 1 3.99132 3.30986 3.40361 
1310 1 3.91058 -1.66391 3.21185 
1353 1 2.80983 3.07169 3.97891 
920 1 3.97845 3.47418 3.95733 
955 1 2.81167 -0.0998835 4.00089 
1314 1 3.50121 4.10029 4.15214 
1357 1 3.67325 2.11401 -1.41827 
1318 1 4.13837 3.25451 2.93381 
924 1 3.60854 4.15189 -0.958389 
1361 1 4.14894 0.372367 3.22043 
1200 1 4.11717 3.98032 3.48332 
1203 1 1.23168 3.21865 1.34756 
1204 1 -1.32642 4.15291 3.2871 
1601 1 0.0652283 -3.59702 3.90468 
1602 1 -1.84562 0.481477 4.02552 
1207 1 0.537613 -0.860263 -0.0992692 
1208 1 2.6371 4.10047 0.0421997 
1605 1 4.12266 2.64417 3.95146 
1606 1 3.26791 2.26864 2.84433 
1212 1 0.850394 3.55603 3.95284 
1609 1 4.13922 -4.51262 2.90284 
1211 1 -1.11583 3.87965 4.15153 
1216 1 3.70301 4.00632 4.04388 
1610 1 2.50932 1.66512 3.24351 
1613 1 1.52552 4.07473 4.15306 
1215 1 3.98967 -5.95493 2.39729 
1220 1 4.04537 4.15328 -4.61634 
1614 1 4.0439 -0.626331 2.42183 
1617 1 2.79586 2.80115 3.65701 
1219 1 4.15165 -0.0760568 3.91654 
1618 1 4.06316 -1.01905 3.91271 
1223 1 3.9469 4.14822 1.59859 
1224 1 2.00071 3.91506 1.09595 
1621 1 3.20876 1.99226 4.14705 
1622 1 -3.34011 3.93977 1.16506 
1227 1 3.14679 3.10506 2.60853 
1228 1 3.53802 4.13986 2.28476 
1625 1 3.16241 4.09415 4.01312 
1626 1 4.05454 4.03904 2.76168 
1232 1 3.5023 -0.257321 1.40792 
1629 1 3.76548 2.99438 1.55895 
1231 1 3.67638 4.15315 3.60298 
1236 1 3.66606 3.75283 0.598335 
1630 1 2.14476 3.98712 2.02198 
1633 1 3.1855 3.98018 0.730713 
1235 1 4.14712 0.914247 1.27987 
1240 1 3.76642 4.10001 3.80547 
1634 1 2.28255 3.59541 -0.545796 
1637 1 3.00024 -0.889142 3.60355 
1239 1 2.03174 4.00677 0.395563 
1638 1 2.45789 1.40352 3.82653 
1243 1 1.95589 3.97226 3.06049 
1244 1 4.14544 2.57807 3.96848 
1641 1 -0.686239 3.02823 -0.191979 
1642 1 3.66275 3.05094 3.9005 
1247 1 2.14359 3.97197 3.36592 
1248 1 4.01387 -0.972093 -0.600746 
1645 1 4.0671 3.60518 4.14187 
1646 1 4.0636 1.98259 2.32925 
1252 1 -0.747375 0.215526 4.02687 
1649 1 4.15128 3.46291 3.46217 
1251 1 1.56901 4.0658 3.60405 
1256 1 3.8321 4.12954 2.30829 
1650 1 3.92386 3.17454 3.85405 
1653 1 2.63873 3.8922 3.99058 
1255 1 3.94965 -0.590282 4.13868 
1260 1 3.97998 4.12568 4.04407 
1654 1 3.80351 3.59876 4.14583 
1657 1 1.01395 4.12286 2.54636 
1259 1 2.90567 3.16866 2.15603 
1658 1 4.13797 2.97035 3.5588 
1263 1 2.46142 -2.54009 1.39308 
1264 1 3.9621 3.98597 4.00033 
1661 1 3.61129 3.46132 2.66102 
1662 1 3.84372 4.1405 4.01808 
1267 1 4.1523 3.14305 3.71288 
1268 1 1.09007 3.20075 4.0105 
1665 1 3.74385 3.73367 4.13944 
1666 1 4.14243 4.15236 3.48102 
1272 1 3.42098 1.60248 4.14428 
1669 1 3.65558 3.67501 2.57866 
1271 1 -5.71009 3.365 3.57047 
1276 1 4.04894 3.61517 3.87693 
1670 1 2.06214 3.61289 3.42319 
1673 1 -2.43439 3.82151 1.28888 
1275 1 3.2836 3.17885 0.97588 
1280 1 3.791 1.73805 3.86863 
1674 1 2.54294 4.1392 3.48076 
1677 1 3.84866 0.190862 -2.15392 
1279 1 3.51651 -5.04851 4.00864 
1678 1 4.1038 3.66089 2.95753 
1283 1 1.56676 4.15018 3.6286 
1681 1 1.64209 3.24792 4.07388 
1287 1 0.833196 3.74457 3.57913 
1685 1 3.72649 1.92782 4.0875 
1689 1 4.12638 3.84312 0.429016 
1291 1 3.99772 1.95496 4.11376 
1303 1 0.869138 4.03986 1.72276 
1307 1 4.01868 0.491694 4.00234 
1705 1 1.83303 4.14269 4.13298 
1709 1 4.00775 3.65228 4.14321 
1311 1 3.3419 1.83409 2.47984 
1713 1 -1.99613 4.15199 3.70033 
1315 1 2.87701 3.92232 3.21278 
1717 1 4.15049 1.88046 3.52574 
1319 1 3.89567 3.58077 2.70215 
1284 1 3.97598 -1.35185 -0.991836 
1323 1 4.14937 3.9439 3.70712 
1682 1 -0.0995143 4.15104 -2.3321 
1721 1 3.47278 3.88185 3.3516 
1288 1 3.26763 4.13799 1.95384 
1686 1 3.02152 1.80693 3.3971 
1312 1 1.45333 1.06346 4.11038 
1316 1 1.81878 -0.934755 4.15089 
1351 1 2.78656 3.82297 4.1518 
1710 1 3.14013 3.42499 3.60306 
1753 1 3.25463 3.73708 3.75044 
1320 1 3.67667 3.59215 1.08513 
1355 1 3.70165 4.15188 3.613 
1714 1 4.13146 3.97579 3.50086 
1757 1 3.57803 4.15301 2.57611 
1359 1 3.34714 3.68118 3.01516 
1718 1 4.14548 3.70349 3.94056 
1324 1 3.19057 3.80388 3.01067 
1356 1 3.99988 4.14489 3.95438 
1754 1 0.244652 4.01327 4.01422 
1758 1 4.14102 4.00134 1.87798 
1997 1 2.85433 2.05209 4.10128 
1600 1 2.53714 3.90044 1.61414 
1603 1 4.14621 4.15244 0.543343 
1604 1 -0.277003 3.62169 3.46445 
1607 1 0.838868 3.86128 4.14727 
1608 1 3.91851 4.03122 2.53174 
1612 1 3.067 4.14311 1.39454 
1611 1 -2.21509 3.33795 2.50598 
1616 1 1.77295 1.8296 4.13448 
1615 1 4.07659 3.60118 3.8401 
1620 1 2.13084 4.09757 3.67106 
1619 1 3.69012 -2.11634 3.76964 
1623 1 4.09773 3.92251 4.10283 
1624 1 2.84128 4.14789 4.15249 
1627 1 0.313986 3.74425 4.12586 
1628 1 1.78457 -0.645167 4.10154 
1632 1 4.09795 1.3545 3.82523 
1631 1 4.15329 -0.563155 3.34082 
1636 1 3.94018 4.1203 -5.36884 
1635 1 3.41069 3.01619 1.24729 
1640 1 2.38645 3.68952 -7.0224 
1639 1 4.10392 0.151319 3.97051 
1643 1 4.02816 1.9772 4.01548 
1644 1 3.54034 3.68303 3.54767 
1647 1 3.66304 3.95799 4.06974 
1648 1 3.98058 2.16168 1.24205 
1652 1 3.52519 3.89075 2.9098 
1651 1 1.63033 3.85032 2.69701 
1656 1 3.76443 3.35691 2.67318 
1655 1 4.02726 -0.0117863 3.60261 
1660 1 3.67041 0.976646 1.37879 
1659 1 3.9065 3.84881 3.54287 
1663 1 2.75167 4.12057 0.997561 
1664 1 -0.738979 2.97287 4.11258 
1667 1 1.06303 3.75219 3.90206 
1668 1 4.05997 2.3907 -3.89766 
1672 1 1.65144 3.92855 4.13605 
1671 1 4.09581 1.22255 4.07385 
1676 1 3.45416 2.4445 3.75179 
1675 1 2.41594 4.15086 4.15308 
1680 1 1.31922 3.34279 2.73246 
1679 1 3.8645 0.432174 0.994214 
1683 1 2.77873 3.01048 1.27183 
1687 1 3.84821 1.56992 -10.7116 
1691 1 2.65621 4.15296 4.02971 
1703 1 0.675858 3.27884 3.50507 
1707 1 3.0494 3.56504 4.15324 
1711 1 3.37105 2.3889 2.95807 
1715 1 1.09546 2.20095 3.41964 
1719 1 2.00739 2.23691 4.14833 
1684 1 4.13366 3.2837 4.14537 
1723 1 3.66892 3.49143 4.15156 
1688 1 1.61846 -7.28768 3.66417 
1712 1 3.88802 2.67125 3.68595 
1716 1 0.0253728 3.50247 4.06735 
1751 1 3.27909 3.87501 -1.36764 
1720 1 3.96595 3.33969 3.20071 
1755 1 4.14591 3.28672 3.80165 
1759 1 3.27513 3.99628 3.86792 
1724 1 3.65725 4.13658 -0.192005 
1756 1 3.98205 2.5321 3.92899 
1760 1 2.6072 4.00545 0.587932 
1795 1 0.4945 2.9573 4.15295 
1799 1 3.63861 3.30979 1.35469 
2000 1 -0.1578 2.97655 -0.71512 
2001 1 3.38298 3.57304 2.36144 
2002 1 1.17748 4.10124 3.26894 
2003 1 2.73692 4.05489 3.87592 
2004 1 4.15085 1.10548 4.1444 
2005 1 3.15836 4.12146 0.342024 
2006 1 -2.72955 -1.45809 4.09 
2007 1 2.41258 4.12858 3.79921 
2008 1 3.1284 4.1455 2.03525 
2009 1 -0.574846 3.72346 4.15095 
2012 1 -1.10885 3.80103 2.70378 
2010 1 3.58578 3.95832 2.01699 
2011 1 3.37517 -1.26473 0.569652 
2013 1 3.68441 -5.6004 4.06314 
2016 1 2.37757 4.13716 0.696443 
2014 1 3.19726 0.645293 -5.43165 
2015 1 1.67723 4.0897 3.9947 
2017 1 3.46078 4.13265 2.45343 
2020 1 4.14326 4.09675 0.15221 
2018 1 3.66491 0.660239 3.8081 
2019 1 3.23591 4.1423 3.64708 
2021 1 4.09598 3.06752 4.11521 
2022 1 1.0854 3.40452 3.36289 
2023 1 3.98304 3.5884 3.52932 
2024 1 1.99786 3.8779 4.15085 
2025 1 4.15181 3.89247 2.16501 
2026 1 -5.79175 3.78393 0.0906305 
2027 1 3.91586 -2.61683 2.43104 
2028 1 4.04198 2.78089 2.91785 
2029 1 3.15019 -5.38207 3.58977 
2032 1 -2.64268 1.78744 2.5066 
2030 1 -10.2015 1.4327 -2.83883 
2031 1 3.39897 -1.84841 3.83888 
2033 1 4.12984 -0.878795 2.85493 
2036 1 2.33907 2.28976 3.7514 
2034 1 -3.59087 2.57543 3.83881 
2035 1 3.98112 3.66969 4.15257 
2037 1 4.11501 3.16394 -1.55714 
2040 1 3.05172 1.41296 2.32361 
2038 1 4.1516 4.12404 1.31353 
2039 1 2.81396 3.65753 3.86941 
2041 1 4.06389 3.80772 0.108332 
2042 1 3.62609 -6.61747 4.11867 
2043 1 -19.5305 1.55059 4.11422 
2044 1 3.9123 3.84056 3.43782 
2045 1 3.78528 4.13118 2.28929 
2046 1 3.54873 0.496897 -2.80019 
2047 1 4.15259 4.13629 3.23507 
2048 1 1.32581 4.11878 3.16589 
2049 1 3.9738 1.91826 3.98204 
2052 1 1.35467 3.98936 4.09527 
2050 1 4.07114 3.92742 2.98816 
2051 1 3.17562 3.93611 1.76364 
2053 1 2.2253 -1.88254 3.10359 
2056 1 -0.617026 3.30259 4.03545 
2054 1 3.37692 4.11898 4.05868 
2055 1 3.57287 3.9438 4.15294 
2057 1 4.11721 2.59152 0.246876 
2060 1 -0.291652 4.07417 2.98369 
2058 1 1.85135 2.74651 1.77246 
2059 1 2.8184 -2.56689 2.53842 
2061 1 2.58803 3.45167 3.88394 
2062 1 4.0099 3.87084 4.13422 
2063 1 -0.438844 0.778141 2.88469 
2064 1 4.13062 1.65688 0.826267 
2065 1 3.46411 3.74902 2.31784 
2066 1 3.07239 4.07485 3.49314 
2067 1 2.19388 3.66371 3.1145 
2068 1 -0.192885 2.48617 2.96083 
2069 1 3.0617 3.53144 -4.74926 
2072 1 3.86084 3.37709 1.31213 
2070 1 3.69676 3.02536 3.88226 
2071 1 4.09436 3.67271 3.92169 
2073 1 4.11651 4.07572 3.51265 
2076 1 3.36411 2.5163 3.59548 
2074 1 3.56902 1.53103 2.9145 
2075 1 3.63172 4.00698 4.15299 
2077 1 3.39233 3.92617 3.84047 
2080 1 2.49417 3.68655 4.14178 
2078 1 4.05337 1.21869 3.94888 
2079 1 -1.85735 2.46359 4.14775 
2081 1 4.12218 4.01431 3.92349 
2083 1 4.0964 4.01186 1.21382 
2085 1 3.81285 2.91162 3.10021 
2087 1 2.91268 2.02993 4.14797 
2089 1 3.626 2.90049 -1.7554 
2091 1 4.01648 4.14796 3.60504 
2093 1 3.99312 1.75604 2.86267 
2095 1 3.79723 3.89722 0.460269 
2099 1 2.33256 0.285812 0.29432 
2101 1 3.79958 3.91284 2.96562 
2103 1 0.390959 4.01019 2.72471 
2105 1 3.85114 3.15406 -1.72316 
2107 1 4.13694 3.5464 2.71084 
2109 1 -3.52637 3.94513 -0.466715 
2111 1 3.50318 4.10928 -0.38665 
2113 1 4.05703 0.95092 2.30297 
2115 1 3.33822 4.08143 3.89167 
2117 1 3.89151 -2.6789 4.1403 
2119 1 4.15322 3.9801 4.12221 
2082 1 3.15964 -0.160862 3.31819 
2084 1 3.47443 1.03578 3.86101 
2121 1 4.09956 -0.625118 2.50183 
2123 1 -0.305503 4.02022 3.21669 
2086 1 -3.46263 0.891324 3.90584 
2088 1 3.76301 1.16622 3.19676 
2092 1 2.7876 -0.638862 0.120549 
2106 1 3.25352 3.47612 4.12225 
2112 1 4.13847 0.78743 -4.58174 
2110 1 3.64556 2.71505 3.61807 
2116 1 4.06303 2.8485 4.00322 
2151 1 -1.16337 2.86376 1.73906 
2153 1 1.83235 2.76071 3.48108 
2114 1 3.20094 4.14707 2.97481 
2120 1 4.15278 4.13017 3.67674 
2155 1 1.42091 2.04739 2.66067 
2157 1 -12.121 3.7375 0.61111 
2118 1 4.1533 4.15318 3.75343 
2159 1 0.966874 3.64557 4.00625 
2124 1 3.24152 3.0602 -7.05627 
2156 1 -1.00442 2.71478 2.92256 
2154 1 2.4772 3.96554 2.17469 
2160 1 3.65616 3.72785 3.75819 
2195 1 2.8389 3.68111 3.80746 
2197 1 -0.109025 -0.153545 2.49328 
2158 1 3.22347 3.56412 4.13293 
2199 1 3.20852 3.19865 -1.30565 
2200 1 4.13616 0.778104 2.27085 
2198 1 2.25711 1.89083 1.65785 
2237 1 2.87016 4.07275 4.05738 
2240 1 1.63921 4.15295 4.10499 
2239 1 -3.11432 3.7718 3.75994 
2279 1 2.56844 -0.521182 3.29525 
2319 1 4.05209 4.13938 4.05741 
2318 1 -2.65896 3.35154 4.07707 
2359 1 4.0758 3.12147 4.13096 
2360 1 3.77428 3.67357 4.07327 
2397 1 4.02744 2.70536 3.11709 
2400 1 3.91541 0.469294 3.07697 
2401 1 -5.92789 2.60116 1.84306 
2402 1 4.12905 4.13096 2.30836 
2403 1 3.19042 3.88317 1.43167 
2404 1 2.50835 4.15149 -1.33113 
2405 1 2.67674 -0.098125 2.43869 
2406 1 3.81225 3.77654 3.71825 
2407 1 -1.2597 3.74385 3.84871 
2408 1 0.294642 3.9706 2.61465 
2409 1 4.00418 3.05508 3.79876 
2412 1 1.8294 2.44119 3.37979 
2410 1 2.66741 3.23682 4.06035 
2411 1 3.96313 4.04448 4.11617 
2413 1 2.1554 3.68521 2.42944 
2416 1 0.896728 0.862069 3.63368 
2414 1 3.64228 -0.287075 1.82907 
2415 1 0.184133 3.94231 3.69642 
2417 1 -2.05845 2.62694 3.95674 
2420 1 1.90141 3.96242 3.97371 
2418 1 0.600266 -3.35534 3.97453 
2419 1 4.00693 3.58278 4.08319 
2421 1 3.88421 4.1512 3.99132 
2422 1 3.67436 3.79504 3.35339 
2423 1 3.50375 4.1029 4.14017 
2424 1 3.15049 4.08201 3.98825 
2425 1 2.8762 4.15262 -0.0586054 
2426 1 3.99706 4.14942 3.70343 
2427 1 -2.4577 0.248299 3.38964 
2428 1 3.77204 3.37337 2.30947 
2429 1 0.947586 -0.145158 0.984445 
2432 1 4.15328 3.18289 3.42763 
2430 1 2.44787 3.22313 4.11965 
2431 1 3.61482 4.13037 4.15064 
2433 1 0.201626 2.28783 4.02994 
2436 1 3.0282 4.14942 -1.11631 
2434 1 3.75147 -0.702956 -1.04359 
2435 1 4.10992 3.67451 0.150615 
2437 1 3.27145 3.94003 3.13703 
2440 1 2.95787 3.84481 4.15004 
2438 1 2.85998 3.96684 4.15097 
2439 1 4.01383 3.99634 3.94919 
2441 1 2.3514 3.42275 -0.26707 
2442 1 2.33741 4.1512 3.43611 
2443 1 3.8824 3.25087 4.09063 
2444 1 2.57731 4.11687 3.91376 
2445 1 4.07994 4.15266 1.8448 
2446 1 3.8946 1.12655 3.28526 
2447 1 3.94967 1.37859 4.11345 
2448 1 3.50703 3.4383 3.49869 
2449 1 -3.91571 4.14808 4.08727 
2452 1 4.08945 3.1879 3.72172 
2450 1 4.05489 4.08425 4.14892 
2451 1 3.72147 1.6525 3.71631 
2453 1 -2.65455 2.73627 4.01226 
2456 1 3.87991 3.5037 3.54235 
2454 1 4.15288 3.63394 3.23054 
2455 1 4.15316 4.12447 2.29019 
2457 1 3.60151 2.69296 3.78752 
2460 1 4.07564 1.45488 3.10568 
2458 1 -4.38744 4.07054 2.64948 
2459 1 4.06755 2.06199 3.74908 
2461 1 -0.481929 3.5385 3.38753 
2462 1 2.38747 3.75066 1.23445 
2463 1 0.221841 -1.1373 -6.4522 
2464 1 2.2946 4.04256 3.27164 
2465 1 3.98075 0.0783394 3.79794 
2466 1 -7.76056 -2.09163 3.7283 
2467 1 3.47776 0.464274 2.70645 
2468 1 0.253987 4.13283 3.25495 
2469 1 2.96875 -1.06474 -0.875031 
2472 1 4.11859 3.31879 3.87419 
2470 1 3.60382 2.91557 2.94829 
2471 1 2.66094 1.39185 -0.408342 
2473 1 4.0454 3.70084 4.01072 
2476 1 2.62517 4.15142 2.6743 
2474 1 1.19335 3.93528 3.35739 
2475 1 3.16614 3.67688 4.13128 
2477 1 4.14916 -0.254555 1.18971 
2480 1 3.08452 1.47949 4.14481 
2478 1 2.88409 3.49478 3.85825 
2479 1 3.61718 2.75445 3.72934 
2481 1 -4.5117 3.94369 2.92585 
2483 1 3.20291 2.38827 3.98142 